# vtk DataFile Version 2.0
Lid-driven cavity
ASCII
DATASET STRUCTURED_POINTS
DIMENSIONS 64 64 1
ORIGIN 0.0078125 0.0078125 0
SPACING 0.015625 0.015625 1
POINT_DATA 4096
SCALARS pressure double 1
LOOKUP_TABLE default
0.626992
0.62242
0.615447
0.60881
0.604288
0.602941
0.605355
0.611821
0.622453
0.637266
0.656212
0.679218
0.706197
0.737056
0.771706
0.810056
0.852021
0.897515
0.94645
0.998739
1.05429
1.11299
1.17474
1.23942
1.3069
1.37702
1.44963
1.52455
1.60159
1.68053
1.76115
1.84319
1.92639
2.01046
2.09509
2.17998
2.26478
2.34914
2.4327
2.51506
2.59584
2.67465
2.75108
2.82474
2.89525
2.96223
3.02533
3.0842
3.13855
3.18808
3.23256
3.27179
3.30561
3.33392
3.35666
3.37387
3.38566
3.39224
3.39398
3.39145
3.38553
3.37759
3.36968
3.36476
0.631565
0.626974
0.621556
0.616896
0.614236
0.614433
0.618031
0.625349
0.636551
0.651701
0.670802
0.693817
0.720692
0.751358
0.785742
0.823767
0.865356
0.910429
0.958901
1.01069
1.06569
1.12381
1.18494
1.24895
1.31572
1.38509
1.45691
1.53099
1.60715
1.68517
1.76482
1.84585
1.92801
2.01099
2.09452
2.17826
2.2619
2.34508
2.42744
2.50861
2.5882
2.66582
2.7411
2.81364
2.88307
2.94903
3.01118
3.06919
3.12277
3.17166
3.21563
3.2545
3.28813
3.31646
3.33946
3.3572
3.36982
3.37757
3.38086
3.38025
3.37655
3.37089
3.36474
3.35984
0.638575
0.632354
0.626893
0.622959
0.621288
0.622469
0.626921
0.634916
0.646613
0.662091
0.681376
0.704454
0.731291
0.761836
0.796031
0.83381
0.875104
0.91984
0.967938
1.01931
1.07388
1.13153
1.19215
1.25563
1.32184
1.39063
1.46183
1.53527
1.61075
1.68808
1.76701
1.8473
1.92869
2.01089
2.09361
2.17655
2.25936
2.34172
2.42326
2.5036
2.58238
2.6592
2.73369
2.80548
2.87419
2.93947
3.00098
3.05842
3.11149
3.15995
3.20358
3.24222
3.27576
3.30413
3.32735
3.34548
3.35869
3.36725
3.37154
3.37207
3.36951
3.36468
3.35853
3.35195
0.645298
0.63696
0.630672
0.626695
0.625392
0.627103
0.632104
0.640587
0.652678
0.668445
0.687914
0.711083
0.737927
0.768409
0.80248
0.840085
0.881163
0.925646
0.973459
1.02452
1.07875
1.13604
1.19629
1.25938
1.32518
1.39354
1.4643
1.53729
1.61232
1.68918
1.76763
1.84744
1.92835
2.01006
2.09229
2.17474
2.25707
2.33895
2.42002
2.4999
2.57822
2.65461
2.72868
2.80006
2.86838
2.93329
2.99446
3.05159
3.10439
3.15262
3.19609
3.23463
3.26814
3.29657
3.31994
3.33834
3.35194
3.36098
3.36581
3.36686
3.36465
3.35976
3.35274
3.34397
0.649903
0.639487
0.632073
0.627643
0.62631
0.628223
0.633526
0.642329
0.654709
0.670709
0.690346
0.713617
0.7405
0.770965
0.804971
0.842469
0.883405
0.927718
0.975338
1.02619
1.08019
1.13724
1.19724
1.26008
1.32562
1.39372
1.46423
1.53697
1.61175
1.68837
1.7666
1.84619
1.92689
2.0084
2.09045
2.17272
2.25491
2.33665
2.41759
2.49736
2.57558
2.65188
2.72586
2.79716
2.86541
2.93026
2.99137
3.04844
3.1012
3.1494
3.19285
3.23139
3.26494
3.29344
3.31693
3.3355
3.34929
3.35854
3.36356
3.36469
3.36234
3.3569
3.34868
3.33779
0.65122
0.638962
0.63038
0.625316
0.623726
0.625624
0.631049
0.640036
0.652612
0.668792
0.688575
0.711949
0.738895
0.769383
0.803375
0.84083
0.881698
0.925923
0.973441
1.02418
1.07806
1.135
1.19489
1.25761
1.32305
1.39107
1.46151
1.5342
1.60895
1.68556
1.7638
1.84344
1.9242
2.00581
2.08798
2.1704
2.25276
2.33469
2.41585
2.49585
2.57431
2.65085
2.72508
2.79663
2.86511
2.93018
2.9915
3.04875
3.10168
3.15002
3.1936
3.23226
3.26591
3.29451
3.31808
3.33672
3.35057
3.35984
3.36479
3.36572
3.36293
3.35671
3.34724
3.33452
0.648511
0.634686
0.625013
0.619266
0.617308
0.619063
0.624488
0.63356
0.64626
0.662573
0.68248
0.70596
0.732988
0.763534
0.797563
0.835037
0.875909
0.920129
0.967638
1.01837
1.07225
1.12919
1.1891
1.25187
1.31737
1.38547
1.45603
1.52887
1.60381
1.68064
1.75915
1.83909
1.92019
2.00219
2.08478
2.16767
2.25052
2.33298
2.41468
2.49525
2.57428
2.6514
2.7262
2.7983
2.86731
2.93288
2.99467
3.05234
3.10564
3.15431
3.19815
3.23703
3.27084
3.29956
3.3232
3.34185
3.35565
3.36479
3.36951
3.37006
3.36669
3.35962
3.34898
3.33476
0.641295
0.626159
0.615514
0.609105
0.606742
0.608286
0.613639
0.622728
0.635501
0.651914
0.671932
0.695521
0.722652
0.753291
0.787406
0.824958
0.865908
0.910207
0.957801
1.00863
1.06262
1.1197
1.17977
1.24273
1.30846
1.37683
1.44769
1.52088
1.59623
1.67352
1.75254
1.83304
1.91477
1.99745
2.08076
2.16442
2.24809
2.33141
2.41399
2.49545
2.57539
2.65341
2.7291
2.80207
2.87191
2.93825
3.00075
3.05908
3.11295
3.1621
3.20636
3.24555
3.2796
3.30846
3.33216
3.35079
3.36447
3.37339
3.37776
3.37783
3.3738
3.3659
3.35422
3.33879
0.629253
0.613019
0.601526
0.594507
0.591741
0.593048
0.59829
0.60736
0.620174
0.636669
0.656791
0.680499
0.707755
0.738525
0.772774
0.810469
0.851569
0.896031
0.943808
0.994841
1.04907
1.10641
1.16678
1.23008
1.2962
1.36501
1.43638
1.51014
1.5861
1.66409
1.74387
1.8252
1.90784
1.99148
2.07583
2.16058
2.24539
2.32988
2.41368
2.49637
2.57755
2.6568
2.7337
2.80784
2.8788
2.94619
3.00966
3.06886
3.1235
3.17332
3.21811
3.25773
3.29208
3.32112
3.34489
3.36346
3.37698
3.38561
3.38958
3.3891
3.38441
3.3757
3.36312
3.34672
0.61216
0.594998
0.582766
0.575198
0.572051
0.57312
0.578239
0.587272
0.600114
0.616683
0.636915
0.660756
0.688165
0.719105
0.753541
0.79144
0.832765
0.877478
0.925532
0.976877
1.03145
1.08919
1.15
1.2138
1.28048
1.34992
1.42198
1.49651
1.57332
1.65223
1.73303
1.81546
1.89927
1.98418
2.06987
2.15603
2.2423
2.3283
2.41365
2.49791
2.58067
2.66148
2.73991
2.81553
2.88791
2.95663
3.02132
3.08162
3.13723
3.18788
3.23335
3.27349
3.30822
3.33748
3.36133
3.37984
3.39315
3.40146
3.40497
3.40393
3.39858
3.38912
3.37574
3.35853
0.589848
0.571885
0.559006
0.550945
0.547449
0.548294
0.55329
0.562285
0.575155
0.591804
0.612156
0.636153
0.663747
0.6949
0.729576
0.767743
0.809369
0.854417
0.902846
0.95461
1.00965
1.06791
1.12931
1.19377
1.26117
1.33142
1.40436
1.47986
1.55775
1.63783
1.71988
1.80368
1.88895
1.97542
2.06275
2.15064
2.2387
2.32656
2.41379
2.49997
2.58464
2.66736
2.74766
2.82508
2.89918
2.96951
3.03569
3.09733
3.15411
3.20575
3.25204
3.29282
3.32799
3.35752
3.38146
3.39989
3.41299
3.42093
3.42397
3.42235
3.41633
3.40617
3.39207
3.37417
0.562182
0.543508
0.530051
0.521548
0.517735
0.518374
0.52326
0.532225
0.545132
0.561874
0.582367
0.606547
0.634362
0.665772
0.700743
0.739244
0.781245
0.826714
0.875613
0.927903
0.983533
1.04244
1.10457
1.16983
1.23812
1.30935
1.38338
1.46006
1.53923
1.62071
1.70428
1.78971
1.87672
1.96504
2.05434
2.14427
2.23446
2.32451
2.41398
2.50243
2.58938
2.67435
2.75686
2.83642
2.91254
2.98479
3.05272
3.11594
3.17411
3.22693
3.27418
3.3157
3.35139
3.38123
3.40527
3.42363
3.43648
3.44404
3.44657
3.44436
3.43768
3.42684
3.41206
3.39355
0.529041
0.509717
0.495734
0.486827
0.482726
0.48318
0.487973
0.496923
0.509883
0.526738
0.547396
0.571789
0.599864
0.631579
0.666901
0.705801
0.748251
0.794224
0.843688
0.896607
0.952937
1.01263
1.07561
1.14182
1.21117
1.28355
1.35884
1.43691
1.51759
1.6007
1.68603
1.77335
1.86239
1.95286
2.04443
2.13674
2.2294
2.32199
2.41407
2.50515
2.59474
2.68233
2.76741
2.84945
2.92795
3.00241
3.07238
3.13744
3.19722
3.25141
3.29977
3.34214
3.37843
3.40862
3.43279
3.45107
3.46366
3.4708
3.47279
3.46996
3.46261
3.45108
3.43566
3.41656
0.490313
0.470376
0.4559
0.446618
0.442252
0.442542
0.44726
0.456213
0.469246
0.486237
0.507089
0.531729
0.560104
0.592172
0.6279
0.667261
0.710233
0.756791
0.80691
0.860557
0.917697
0.978285
1.04226
1.10957
1.18012
1.25383
1.33057
1.41021
1.49261
1.57757
1.66491
1.75438
1.84573
1.93865
2.03281
2.12783
2.22331
2.3188
2.41385
2.50794
2.60056
2.69116
2.77919
2.86408
2.94531
3.02232
3.09464
3.16181
3.22344
3.27919
3.32882
3.37216
3.40913
3.43973
3.46404
3.48222
3.49452
3.50121
3.50263
3.49913
3.49109
3.47887
3.46279
3.44312
0.445885
0.425352
0.410402
0.400763
0.39615
0.396294
0.400954
0.40993
0.423059
0.44021
0.461285
0.486208
0.514924
0.547391
0.583579
0.623463
0.667026
0.714246
0.765103
0.819573
0.877626
0.939224
1.00432
1.07286
1.14476
1.21994
1.2983
1.37971
1.46403
1.55108
1.64066
1.73254
1.82646
1.92213
2.01919
2.11726
2.21591
2.31469
2.41309
2.5106
2.60665
2.70066
2.79204
2.88019
2.96452
3.04445
3.11945
3.18902
3.25276
3.31029
3.36137
3.40581
3.44354
3.47458
3.49904
3.51712
3.52909
3.53528
3.53606
3.53185
3.52307
3.51012
3.49337
3.4731
0.395637
0.374512
0.359093
0.349108
0.344261
0.344271
0.348891
0.357909
0.371155
0.388493
0.409821
0.435061
0.464157
0.497068
0.533767
0.574232
0.618448
0.666401
0.718075
0.773454
0.832514
0.895226
0.961551
1.03144
1.10483
1.18164
1.26179
1.34514
1.43157
1.5209
1.61296
1.7075
1.80427
1.90297
2.00326
2.10472
2.2069
2.30933
2.4115
2.51283
2.61274
2.7106
2.80577
2.8976
2.98545
3.06868
3.14672
3.21904
3.28516
3.34472
3.39743
3.44311
3.4817
3.51323
3.53785
3.55579
3.56738
3.573
3.57309
3.5681
3.55851
3.54478
3.5273
3.50641
0.339445
0.317716
0.301827
0.291497
0.286422
0.286311
0.290904
0.299981
0.313366
0.330916
0.352525
0.378115
0.407627
0.441025
0.478281
0.519378
0.564305
0.613054
0.665616
0.72198
0.782132
0.84605
0.913706
0.985059
1.06006
1.13863
1.2207
1.30616
1.39488
1.4867
1.58145
1.67889
1.77877
1.88079
1.98462
2.0898
2.19588
2.30237
2.4087
2.5143
2.61852
2.72069
2.82012
2.91609
3.00791
3.09489
3.17637
3.25179
3.32063
3.38248
3.43703
3.48411
3.52365
3.55571
3.58049
3.59827
3.60942
3.6144
3.61369
3.60784
3.59735
3.58276
3.56449
3.54293
0.277175
0.254822
0.23845
0.227772
0.222471
0.222244
0.226822
0.235975
0.249516
0.267301
0.289218
0.315187
0.34515
0.379071
0.416925
0.4587
0.504388
0.553988
0.607496
0.664911
0.726226
0.791429
0.860501
0.933414
1.01013
1.09058
1.17471
1.26242
1.35359
1.44808
1.54571
1.64627
1.74951
1.85513
1.96279
2.07204
2.18239
2.29333
2.40427
2.51458
2.62359
2.73057
2.83476
2.93538
3.03167
3.12286
3.20825
3.28718
3.35909
3.42353
3.48017
3.52882
3.56942
3.60208
3.62702
3.64459
3.65523
3.65946
3.65785
3.65101
3.63952
3.62396
3.60483
3.58252
0.208679
0.185674
0.168803
0.157766
0.152236
0.151898
0.156469
0.165709
0.179425
0.197464
0.219712
0.246086
0.276529
0.311004
0.349491
0.391981
0.438471
0.488965
0.543469
0.601987
0.664522
0.731073
0.801631
0.87618
0.954692
1.03712
1.12342
1.2135
1.30726
1.40456
1.50526
1.60914
1.71597
1.82545
1.93724
2.05088
2.16587
2.28166
2.39764
2.51315
2.62745
2.73976
2.84925
2.95508
3.05639
3.15234
3.24213
3.32504
3.40044
3.46783
3.52683
3.57726
3.61907
3.65238
3.67748
3.69478
3.70481
3.70817
3.70553
3.69756
3.68493
3.66829
3.64817
3.62504
0.133801
0.11011
0.0927147
0.0813051
0.0755404
0.0750905
0.07966
0.0889982
0.102902
0.121212
0.14381
0.170611
0.201557
0.236613
0.27576
0.318993
0.366315
0.417737
0.47327
0.532928
0.596724
0.664667
0.736761
0.813002
0.893375
0.977855
1.0664
1.15894
1.2554
1.35566
1.45957
1.56695
1.67756
1.79114
1.90732
2.02568
2.14566
2.2667
2.38817
2.50936
2.62948
2.74768
2.86307
2.97471
3.08165
3.18295
3.27773
3.36516
3.44453
3.51527
3.57698
3.62943
3.6726
3.70664
3.73191
3.74888
3.75819
3.76054
3.75669
3.74742
3.73349
3.7156
3.69437
3.6703
0.0523707
0.0279542
0.0100066
-0.00179396
-0.00780373
-0.00836822
-0.00379732
0.00564596
0.0197482
0.0383432
0.0613069
0.0885513
0.120018
0.155672
0.195498
0.239494
0.287668
0.340037
0.39662
0.457439
0.522519
0.591878
0.665534
0.743496
0.825767
0.912336
1.00318
1.09825
1.19748
1.30078
1.40802
1.51904
1.63361
1.75148
1.8723
1.99567
2.12098
2.24766
2.37506
2.50241
2.62889
2.75358
2.87549
2.9936
3.10685
3.21419
3.31461
3.40718
3.49109
3.56568
3.6305
3.68528
3.73002
3.7649
3.79034
3.80693
3.81539
3.81656
3.81131
3.80053
3.78508
3.76576
3.74324
3.71809
-0.0357946
-0.0609811
-0.079513
-0.0917263
-0.0979939
-0.0986786
-0.0941061
-0.0845531
-0.0702445
-0.0513548
-0.0280142
-0.000314302
0.0316848
0.067949
0.108464
0.153232
0.202265
0.255587
0.313224
0.375208
0.441573
0.51235
0.587569
0.667256
0.751429
0.840096
0.933251
1.03087
1.13292
1.23931
1.34995
1.4647
1.58335
1.70567
1.83133
1.95994
2.09089
2.22358
2.35733
2.49134
2.62474
2.75652
2.88563
3.01093
3.13123
3.24537
3.35219
3.45063
3.53975
3.61879
3.68721
3.74472
3.79129
3.82716
3.85281
3.86895
3.87643
3.87622
3.86933
3.8568
3.83959
3.81859
3.79457
3.76817
-0.130891
-0.156896
-0.176048
-0.188699
-0.19524
-0.196052
-0.19148
-0.181815
-0.167295
-0.148103
-0.124378
-0.0962157
-0.063678
-0.0267998
0.0144062
0.0599445
0.109833
0.164099
0.222778
0.285911
0.35354
0.425711
0.502468
0.583851
0.669896
0.760632
0.856076
0.956228
1.06107
1.17056
1.28461
1.40312
1.52592
1.65278
1.78342
1.91746
2.05431
2.19333
2.33382
2.47496
2.61582
2.75533
2.89233
3.02558
3.15377
3.27556
3.38965
3.49481
3.58995
3.67417
3.74683
3.80757
3.85634
3.89341
3.91936
3.935
3.94134
3.93953
3.93074
3.91615
3.89687
3.8739
3.84812
3.82022
-0.233128
-0.260004
-0.279815
-0.292931
-0.299763
-0.300713
-0.296145
-0.286367
-0.271632
-0.252134
-0.22802
-0.199392
-0.166315
-0.128825
-0.0869348
-0.0406373
0.010089
0.0652771
0.124969
0.189214
0.258066
0.331581
0.409817
0.492833
0.580683
0.673417
0.771074
0.873683
0.981252
1.09377
1.21119
1.33343
1.46036
1.59179
1.72747
1.86704
2.00997
2.15557
2.30314
2.45183
2.60066
2.74851
2.89412
3.03613
3.17309
3.30349
3.42585
3.53873
3.64087
3.73118
3.80888
3.87351
3.92498
3.96358
3.98998
4.00511
4.01019
4.00652
3.99551
3.97851
3.95678
3.93149
3.90359
3.8739
-0.342731
-0.370534
-0.391048
-0.404658
-0.4118
-0.412899
-0.408339
-0.398448
-0.383495
-0.363689
-0.339184
-0.31009
-0.276477
-0.238384
-0.195824
-0.148788
-0.0972521
-0.0411792
0.0194791
0.0847797
0.154786
0.229567
0.309195
0.393744
0.483289
0.577901
0.677644
0.782576
0.892737
1.00815
1.1288
1.25465
1.38561
1.52154
1.66221
1.80731
1.95639
2.10873
2.26361
2.42019
2.57745
2.73421
2.88913
3.04073
3.18741
3.32748
3.45923
3.58103
3.69134
3.78887
3.87263
3.94203
3.9969
4.03752
4.06463
4.07933
4.08302
4.07725
4.06365
4.04382
4.01921
3.99113
3.96069
3.92881
-0.459937
-0.48873
-0.509992
-0.52413
-0.531603
-0.532861
-0.528314
-0.51831
-0.503138
-0.483019
-0.458122
-0.428564
-0.394422
-0.355739
-0.312528
-0.264783
-0.212478
-0.155571
-0.0940094
-0.02773
0.0433398
0.11928
0.200177
0.28612
0.377204
0.473522
0.575166
0.682221
0.794762
0.912847
1.03651
1.16575
1.30053
1.44074
1.58623
1.73673
1.89188
2.05096
2.21326
2.37793
2.54396
2.71011
2.87499
3.037
3.19438
3.34525
3.48769
3.61976
3.73966
3.84582
3.93698
4.01233
4.07156
4.11493
4.14322
4.15767
4.15991
4.15179
4.13522
4.11205
4.08401
4.05259
4.01906
3.98449
-0.585004
-0.614854
-0.636913
-0.651613
-0.659438
-0.660867
-0.656336
-0.646219
-0.630822
-0.610388
-0.585096
-0.555076
-0.520413
-0.481154
-0.437318
-0.388899
-0.335872
-0.278194
-0.215809
-0.148647
-0.0766289
0.000334773
0.0823424
0.1695
0.261919
0.359716
0.463009
0.571913
0.686537
0.806979
0.933318
1.0656
1.20385
1.34801
1.49798
1.65357
1.81447
1.98013
2.14976
2.32255
2.4975
2.67338
2.84874
3.0219
3.19095
3.35383
3.50835
3.65228
3.78347
3.9
4.00025
4.08313
4.14809
4.19528
4.22547
4.24007
4.24094
4.23025
4.21028
4.18322
4.15109
4.11565
4.07835
4.04043
-0.718205
-0.749184
-0.772096
-0.787395
-0.795594
-0.797204
-0.792689
-0.782453
-0.766825
-0.746066
-0.720375
-0.689892
-0.654713
-0.614894
-0.57046
-0.521407
-0.467714
-0.409337
-0.34622
-0.27829
-0.205462
-0.127638
-0.0447117
0.043438
0.136939
0.235929
0.340549
0.450946
0.567264
0.689639
0.818198
0.953041
1.09424
1.24182
1.39574
1.55589
1.72204
1.89381
2.07041
2.25107
2.43485
2.62055
2.80671
2.99161
3.17322
3.34931
3.51741
3.67498
3.81947
3.9485
4.06002
4.1525
4.22507
4.27762
4.31089
4.32635
4.32613
4.31276
4.28896
4.25737
4.22038
4.18007
4.13817
4.09607
-0.859834
-0.892024
-0.915847
-0.931782
-0.940377
-0.942175
-0.937675
-0.927309
-0.911436
-0.890339
-0.864236
-0.833284
-0.797591
-0.757224
-0.712216
-0.66257
-0.608269
-0.549273
-0.485527
-0.416957
-0.343477
-0.264985
-0.181364
-0.0924851
0.00179463
0.10163
0.207185
0.318633
0.436151
0.559916
0.690099
0.826856
0.970318
1.12058
1.27769
1.4416
1.61221
1.78925
1.97212
2.16005
2.3522
2.54746
2.74443
2.94139
3.13627
3.32667
3.5099
3.68305
3.84315
3.98726
4.11279
4.2176
4.30031
4.36045
4.39853
4.41605
4.41536
4.3994
4.37142
4.3346
4.29185
4.24567
4.1981
4.15081
-1.01021
-1.0437
-1.0685
-1.08511
-1.09412
-1.09611
-1.09161
-1.0811
-1.06496
-1.0435
-1.01697
-0.985528
-0.949314
-0.908403
-0.86284
-0.812638
-0.757787
-0.698254
-0.633988
-0.56492
-0.490963
-0.412014
-0.327955
-0.238648
-0.143942
-0.0436697
0.0623528
0.174321
0.29244
0.416923
0.547984
0.68583
0.830654
0.982625
1.14187
1.30845
1.48236
1.66347
1.85146
2.04559
2.24516
2.44924
2.65657
2.86551
3.07402
3.27963
3.47945
3.67023
3.84852
4.01077
4.15365
4.27428
4.37054
4.44136
4.48682
4.5083
4.5083
4.49018
4.4578
4.41504
4.3655
4.31224
4.25773
4.20399
-1.16966
-1.20456
-1.2304
-1.24774
-1.25718
-1.25936
-1.25485
-1.24416
-1.22772
-1.20586
-1.17886
-1.1469
-1.11015
-1.06869
-1.02258
-0.971846
-0.916497
-0.856507
-0.791832
-0.722411
-0.648163
-0.568989
-0.484771
-0.395374
-0.300639
-0.200394
-0.0944436
0.0174236
0.135435
0.259831
0.390862
0.528781
0.673839
0.826273
0.986295
1.15408
1.32973
1.51329
1.70464
1.90334
2.10879
2.32031
2.53691
2.75716
2.97916
3.20048
3.41812
3.62855
3.82781
4.01168
4.17595
4.31677
4.43103
4.51672
4.57323
4.60155
4.60418
4.58487
4.54817
4.49885
4.44139
4.37963
4.31665
4.2549
-1.33858
-1.37499
-1.40196
-1.42006
-1.42995
-1.43231
-1.42776
-1.41685
-1.40005
-1.37774
-1.35021
-1.3177
-1.28036
-1.23832
-1.19165
-1.14041
-1.0846
-1.02422
-0.959244
-0.889615
-0.815267
-0.73611
-0.652034
-0.562909
-0.468583
-0.368882
-0.26361
-0.15255
-0.0354638
0.0879069
0.217836
0.354612
0.498532
0.649897
0.809
0.976119
1.1515
1.33535
1.52777
1.72868
1.93769
2.15449
2.37845
2.60855
2.84318
3.0801
3.31636
3.54822
3.77128
3.98058
4.17094
4.33729
4.47517
4.58128
4.65391
4.69326
4.70159
4.68289
4.64247
4.58615
4.5196
4.44771
4.37444
4.30282
-1.51736
-1.55541
-1.5836
-1.60251
-1.61286
-1.61538
-1.61074
-1.59956
-1.58233
-1.55948
-1.53135
-1.49819
-1.4602
-1.41753
-1.37028
-1.31851
-1.26227
-1.20155
-1.13636
-1.06666
-0.992401
-0.913505
-0.82988
-0.741411
-0.647958
-0.549361
-0.445432
-0.335962
-0.220717
-0.0994371
0.028159
0.162377
0.303543
0.452006
0.60813
0.772294
0.944884
1.12628
1.31685
1.51683
1.72625
1.94519
2.17363
2.4111
2.65651
2.90806
3.16301
3.41761
3.6671
3.90585
4.12754
4.32567
4.49411
4.62776
4.72327
4.77956
4.79815
4.78307
4.74032
4.67697
4.6002
4.51639
4.43069
4.34698
-1.70645
-1.74631
-1.7758
-1.79557
-1.80639
-1.80903
-1.80425
-1.79269
-1.77493
-1.75143
-1.72258
-1.68868
-1.64995
-1.60656
-1.55866
-1.50632
-1.44963
-1.38861
-1.32327
-1.25362
-1.17961
-1.10121
-1.01835
-0.930921
-0.838824
-0.741917
-0.640039
-0.533004
-0.4206
-0.302589
-0.178703
-0.0486452
0.0879167
0.231353
0.382079
0.540558
0.70731
0.882913
1.06799
1.26315
1.46892
1.68581
1.91465
2.15578
2.40893
2.67297
2.94566
3.22349
3.50157
3.77362
4.03221
4.26921
4.47642
4.64644
4.77358
4.85479
4.89021
4.88341
4.8409
4.77116
4.68328
4.58563
4.48505
4.38661
-1.90637
-1.94819
-1.9791
-1.99979
-2.01106
-2.01378
-2.00875
-1.99671
-1.97828
-1.95399
-1.92427
-1.88946
-1.84984
-1.80561
-1.75694
-1.70397
-1.64678
-1.58543
-1.51999
-1.45046
-1.37686
-1.29917
-1.21735
-1.13135
-1.04109
-0.946471
-0.847375
-0.743659
-0.635157
-0.521678
-0.402998
-0.278858
-0.148958
-0.0129356
0.12964
0.279291
0.436657
0.602504
0.777742
0.963393
1.16053
1.37017
1.59402
1.83373
2.09011
2.36305
2.65119
2.95159
3.25948
3.56819
3.86922
4.15271
4.40805
4.62496
4.79466
4.91119
4.97243
4.98074
4.94275
4.86833
4.76889
4.65547
4.53725
4.421
-2.11766
-2.16165
-2.19411
-2.21576
-2.22748
-2.2302
-2.22481
-2.21212
-2.19284
-2.16755
-2.13676
-2.10084
-2.06013
-2.01488
-1.96529
-1.91154
-1.85375
-1.79203
-1.72646
-1.65711
-1.58402
-1.50721
-1.4267
-1.34247
-1.2545
-1.16275
-1.06716
-0.967661
-0.86415
-0.756515
-0.644612
-0.528262
-0.407234
-0.281223
-0.149824
-0.0124946
0.131489
0.283074
0.443458
0.614105
0.796688
0.992989
1.20522
1.43693
1.69043
1.96704
2.26667
2.58739
2.92498
3.27268
3.62118
3.95884
4.27245
4.54829
4.77366
4.93858
5.03751
5.0705
5.04354
4.9677
4.85706
4.72607
4.58718
4.44956
-2.34098
-2.38737
-2.42152
-2.44418
-2.45631
-2.45893
-2.45302
-2.43948
-2.41911
-2.39257
-2.36043
-2.32314
-2.28108
-2.23455
-2.18382
-2.12909
-2.07054
-2.00832
-1.94256
-1.87336
-1.80082
-1.72502
-1.64602
-1.56386
-1.4786
-1.39027
-1.29888
-1.20446
-1.10701
-1.00654
-0.903001
-0.796357
-0.686493
-0.573214
-0.456197
-0.334932
-0.208655
-0.0762748
0.0636937
0.213168
0.374488
0.550331
0.743597
0.959166
1.20201
1.47522
1.78048
2.11735
2.48269
2.87016
3.26997
3.66895
4.05118
4.39907
4.69516
4.92429
5.07595
5.14644
5.13992
5.06805
4.94776
4.79781
4.63503
4.47195
-2.57704
-2.62612
-2.66212
-2.68584
-2.69833
-2.7007
-2.69406
-2.67941
-2.65765
-2.62953
-2.59569
-2.55668
-2.51293
-2.4648
-2.41262
-2.35664
-2.29709
-2.23417
-2.16807
-2.09893
-2.02692
-1.95217
-1.87481
-1.79496
-1.71275
-1.6283
-1.54174
-1.4532
-1.36282
-1.27075
-1.17713
-1.08207
-0.985645
-0.887829
-0.788446
-0.687085
-0.583003
-0.475013
-0.361376
-0.239718
-0.106999
0.0404307
0.206677
0.396916
0.619755
0.880694
1.18367
1.53033
1.91925
2.34511
2.79823
3.26433
3.72493
4.15837
4.54169
4.85328
5.07603
5.20052
5.22734
5.16762
5.04103
4.87143
4.68147
4.48832
-2.8267
-2.87879
-2.91682
-2.94165
-2.95442
-2.95637
-2.94873
-2.93263
-2.90908
-2.87896
-2.84299
-2.80181
-2.75593
-2.70579
-2.65176
-2.59416
-2.53328
-2.46938
-2.40269
-2.33344
-2.26185
-2.1881
-2.11242
-2.03501
-1.95608
-1.87588
-1.79465
-1.71267
-1.63026
-1.54772
-1.46542
-1.38369
-1.30285
-1.2231
-1.14448
-1.06677
-0.989314
-0.910897
-0.82958
-0.742563
-0.646098
-0.535501
-0.405292
-0.249404
-0.0574102
0.180681
0.471464
0.81926
1.22502
1.68524
2.1911
2.7279
3.27505
3.80691
4.29457
4.70881
5.02408
5.22294
5.30004
5.26415
5.137
4.94822
4.72788
4.49954
-3.09093
-3.14642
-3.18669
-3.21268
-3.22562
-3.22691
-3.21791
-3.19993
-3.17411
-3.14145
-3.10281
-3.05891
-3.01036
-2.95766
-2.90127
-2.84158
-2.77894
-2.71366
-2.64605
-2.5764
-2.50499
-2.4321
-2.35802
-2.28305
-2.20752
-2.13179
-2.05626
-1.98136
-1.90761
-1.83554
-1.76575
-1.69886
-1.63547
-1.5761
-1.52109
-1.47046
-1.42373
-1.37977
-1.33649
-1.29074
-1.23809
-1.1728
-1.08796
-0.975715
-0.825794
-0.622338
-0.355388
-0.0173389
0.395868
0.883399
1.43825
2.04623
2.68549
3.32684
3.93537
4.47338
4.90511
5.2025
5.35122
5.35502
5.23615
5.03031
4.77677
4.50763
-3.37089
-3.43024
-3.473
-3.50018
-3.51314
-3.51344
-3.50264
-3.48223
-3.45352
-3.41768
-3.37568
-3.32838
-3.27647
-3.22056
-3.16118
-3.0988
-3.03383
-2.96667
-2.89768
-2.82722
-2.75565
-2.68332
-2.61063
-2.53797
-2.46579
-2.39459
-2.32492
-2.25741
-2.19278
-2.13184
-2.07545
-2.02455
-1.98011
-1.943
-1.91392
-1.89324
-1.88076
-1.87548
-1.87532
-1.87682
-1.87496
-1.86301
-1.83255
-1.77379
-1.67578
-1.51967
-1.28949
-0.973951
-0.565198
-0.0605213
0.535961
1.21177
1.94495
2.70378
3.44773
4.13027
4.7039
5.12724
5.3734
5.43745
5.33958
5.12109
4.8322
4.51626
-3.66793
-3.7317
-3.77724
-3.80562
-3.81839
-3.81729
-3.80413
-3.78059
-3.74823
-3.70838
-3.66219
-3.61063
-3.55453
-3.49461
-3.43147
-3.36566
-3.29769
-3.22799
-3.15703
-3.08522
-3.013
-2.94081
-2.86914
-2.79849
-2.72943
-2.66261
-2.59875
-2.53868
-2.48337
-2.43387
-2.39138
-2.3572
-2.33266
-2.31908
-2.31759
-2.32895
-2.35335
-2.39003
-2.437
-2.49065
-2.54548
-2.59383
-2.62591
-2.62998
-2.59283
-2.49624
-2.31623
-2.0372
-1.64688
-1.13814
-0.511088
0.224883
1.04924
1.92915
2.81959
3.66546
4.40653
4.98558
5.3592
5.50909
5.44951
5.22578
4.90051
4.53146
-3.98368
-4.05255
-4.10119
-4.13078
-4.14305
-4.14002
-4.12376
-4.09624
-4.05927
-4.0144
-3.96298
-3.90614
-3.84485
-3.77993
-3.71209
-3.64197
-3.57015
-3.49714
-3.42347
-3.34962
-3.27612
-3.2035
-3.13231
-3.06319
-2.99683
-2.93402
-2.87567
-2.82281
-2.77665
-2.73854
-2.71002
-2.69274
-2.68847
-2.69898
-2.72587
-2.77041
-2.8332
-2.91384
-3.01056
-3.11974
-3.23552
-3.34953
-3.45071
-3.52546
-3.55807
-3.53027
-3.4137
-3.18565
-2.82907
-2.33171
-1.68855
-0.904474
0.00319438
1.00245
2.04553
3.06985
4.0023
4.76779
5.30234
5.56875
5.56993
5.35211
4.99103
4.56245
-4.32011
-4.39488
-4.447
-4.47776
-4.48914
-4.48347
-4.46318
-4.43059
-4.38781
-4.33668
-4.27877
-4.2154
-4.1477
-4.07662
-4.00298
-3.92749
-3.85082
-3.77356
-3.69629
-3.61959
-3.54402
-3.47021
-3.39881
-3.33056
-3.26626
-3.20687
-3.15345
-3.10727
-3.06976
-3.04258
-3.02758
-3.02682
-3.0425
-3.07685
-3.13201
-3.20973
-3.31112
-3.43626
-3.58366
-3.74985
-3.92883
-4.11169
-4.28636
-4.43759
-4.54736
-4.59542
-4.55368
-4.39036
-4.08315
-3.61404
-2.97196
-2.15581
-1.17781
-0.0668498
1.12897
2.34162
3.48594
4.46787
5.19914
5.61752
5.70757
5.51135
5.11722
4.62274
-4.67959
-4.76126
-4.8173
-4.84914
-4.85906
-4.84983
-4.82432
-4.78528
-4.73522
-4.67629
-4.61035
-4.53896
-4.4634
-4.38478
-4.30402
-4.22193
-4.13925
-4.05664
-3.97474
-3.89419
-3.81562
-3.73972
-3.66724
-3.599
-3.53593
-3.47912
-3.42981
-3.38946
-3.35974
-3.3426
-3.3402
-3.355
-3.38961
-3.44674
-3.52902
-3.63877
-3.77763
-3.94616
-4.14333
-4.36592
-4.60799
-4.86036
-5.11021
-5.34101
-5.53273
-5.66247
-5.70268
-5.61634
-5.37326
-4.94952
-4.32724
-3.49808
-2.46729
-1.25809
0.0839988
1.48838
2.85994
4.08575
5.05034
5.66021
5.87306
5.71943
5.29791
4.73151
-5.06503
-5.15484
-5.21529
-5.24802
-5.25574
-5.24174
-5.20946
-5.16223
-5.10302
-5.03441
-4.95859
-4.87736
-4.79223
-4.70444
-4.61504
-4.52493
-4.4349
-4.34568
-4.25797
-4.17243
-4.08978
-4.01074
-3.93614
-3.86689
-3.80402
-3.74874
-3.70246
-3.6668
-3.64368
-3.63529
-3.64411
-3.67294
-3.72479
-3.80283
-3.91018
-4.04966
-4.22348
-4.43272
-4.67686
-4.95307
-5.25567
-5.57543
-5.89917
-6.20945
-6.48466
-6.69955
-6.82527
-6.8248
-6.65841
-6.29595
-5.71226
-4.89078
-3.82801
-2.53907
-1.06358
0.528946
2.13671
3.62954
4.86323
5.70714
6.08257
5.99854
5.55895
4.91524
-5.48006
-5.57952
-5.64495
-5.67827
-5.68272
-5.66233
-5.62129
-5.56363
-5.49295
-5.41234
-5.32437
-5.23116
-5.13444
-5.03559
-4.9358
-4.83603
-4.73715
-4.63991
-4.54505
-4.45327
-4.36531
-4.28196
-4.20406
-4.13262
-4.06874
-4.01376
-3.9692
-3.93686
-3.91884
-3.91757
-3.93581
-3.97665
-4.04348
-4.13986
-4.26934
-4.43525
-4.6403
-4.88611
-5.17268
-5.49769
-5.85584
-6.23815
-6.63139
-7.01767
-7.37435
-7.67436
-7.88683
-7.97558
-7.89519
-7.60728
-7.07936
-6.28597
-5.21357
-3.86676
-2.27602
-0.505587
1.34043
3.11786
4.65401
5.77636
6.35969
6.37899
5.93518
5.20978
-5.92922
-6.04023
-6.11127
-6.14464
-6.14435
-6.11539
-6.06297
-5.99203
-5.90696
-5.81148
-5.70863
-5.60088
-5.49018
-5.37811
-5.26593
-5.15468
-5.04526
-4.93845
-4.83498
-4.73558
-4.64099
-4.55201
-4.46953
-4.3946
-4.32839
-4.27231
-4.228
-4.19739
-4.18275
-4.1867
-4.21223
-4.2627
-4.34178
-4.45337
-4.6014
-4.78961
-5.02117
-5.29819
-5.62119
-5.9884
-6.39504
-6.83256
-7.28802
-7.74352
-8.17598
-8.55721
-8.85449
-9.0309
-9.04109
-8.83685
-8.37846
-7.63129
-6.57075
-5.1891
-3.50451
-1.57163
0.508261
2.58186
4.45023
5.8961
6.73784
6.90152
6.47289
5.6629
-6.41827
-6.54322
-6.62055
-6.6531
-6.64597
-6.60549
-6.53821
-6.45032
-6.34718
-6.23328
-6.11224
-5.98689
-5.85946
-5.73167
-5.60486
-5.48011
-5.35831
-5.24024
-5.12661
-5.01811
-4.91547
-4.8195
-4.73109
-4.65128
-4.58132
-4.52266
-4.47702
-4.44645
-4.43332
-4.44042
-4.47091
-4.52836
-4.61667
-4.73998
-4.90254
-5.10838
-5.36104
-5.66306
-6.01543
-6.41692
-6.86331
-7.34668
-7.85462
-8.36964
-8.86874
-9.32334
-9.69947
-9.95885
-10.0575
-9.94084
-9.56065
-8.87332
-7.84275
-6.44752
-4.69088
-2.61376
-0.309056
2.06684
4.29326
6.10763
7.26313
7.62027
7.23296
6.33742
-6.95467
-7.09662
-7.1809
-7.2112
-7.19421
-7.13812
-7.05138
-6.94173
-6.81585
-6.67915
-6.5359
-6.38937
-6.24201
-6.09567
-5.95173
-5.81126
-5.67511
-5.54399
-5.41856
-5.29944
-5.18732
-5.08295
-4.98722
-4.90115
-4.826
-4.76325
-4.71468
-4.68239
-4.66887
-4.677
-4.71006
-4.77176
-4.86617
-4.99759
-5.17044
-5.389
-5.65703
-5.97743
-6.35158
-6.77872
-7.25523
-7.77379
-8.32271
-8.88518
-9.43879
-9.9552
-10.4001
-10.7342
-10.9129
-10.8815
-10.5816
-9.96112
-8.97259
-7.58009
-5.77007
-3.56617
-1.04743
1.63351
4.24067
6.46835
7.99782
8.60644
8.29475
7.31531
-7.54821
-7.71108
-7.80286
-7.82858
-7.7973
-7.71993
-7.60746
-7.46979
-7.31522
-7.15028
-6.97999
-6.80803
-6.63706
-6.46899
-6.30519
-6.14663
-5.99404
-5.84804
-5.70914
-5.57787
-5.45484
-5.3407
-5.2363
-5.14262
-5.06089
-4.9926
-4.93955
-4.90389
-4.88813
-4.89523
-4.92855
-4.99188
-5.08934
-5.22535
-5.40442
-5.63096
-5.90893
-6.24139
-6.63002
-7.07441
-7.57137
-8.11419
-8.69188
-9.28844
-9.88232
-10.4459
-10.9454
-11.3408
-11.5868
-11.6298
-11.4043
-10.8494
-9.90639
-8.52472
-6.67294
-4.35468
-1.63025
1.35856
4.36835
7.05524
9.02456
9.95295
9.76132
8.70308
-8.21205
-8.40091
-8.50035
-8.51767
-8.46552
-8.3588
-8.21208
-8.03813
-7.84726
-7.64736
-7.4442
-7.24185
-7.0431
-6.8498
-6.66318
-6.48402
-6.31286
-6.15011
-5.99612
-5.85124
-5.71593
-5.59075
-5.47643
-5.37391
-5.28435
-5.20922
-5.15031
-5.10976
-5.09013
-5.09437
-5.12588
-5.18846
-5.28626
-5.42373
-5.6054
-5.83573
-6.11872
-6.45752
-6.85392
-7.30772
-7.81605
-8.37264
-8.96711
-9.58426
-10.2034
-10.798
-11.335
-11.7749
-12.0713
-12.17
-12.0036
-11.5017
-10.5961
-9.22207
-7.32912
-4.89918
-1.96983
1.3347
4.77234
7.96847
10.4516
11.7808
11.7665
10.6392
-8.96433
-9.18574
-9.29215
-9.29467
-9.21168
-9.06402
-8.87132
-8.65011
-8.41323
-8.17004
-7.92706
-7.68861
-7.45739
-7.23505
-7.02249
-6.82018
-6.62834
-6.44706
-6.27644
-6.11662
-5.96784
-5.83051
-5.70523
-5.59283
-5.49442
-5.41139
-5.3455
-5.29887
-5.27402
-5.27392
-5.30194
-5.36183
-5.45774
-5.59407
-5.77533
-6.00592
-6.28977
-6.63
-7.02837
-7.48472
-7.99634
-8.55722
-9.15741
-9.78232
-10.4121
-11.021
-11.5771
-12.0416
-12.3675
-12.4989
-12.3683
-11.8963
-11.0053
-9.61868
-7.6696
-5.11614
-1.96935
1.66992
5.57003
9.33504
12.4186
14.2472
14.4851
13.3054
-9.83078
-10.0932
-10.2039
-10.1808
-10.0516
-9.84613
-9.59113
-9.30809
-9.0128
-8.71614
-8.42515
-8.14408
-7.87529
-7.61988
-7.37824
-7.15028
-6.93577
-6.73437
-6.54581
-6.36993
-6.20674
-6.05642
-5.91943
-5.79644
-5.68847
-5.59683
-5.52322
-5.4697
-5.43876
-5.43329
-5.4566
-5.51241
-5.60481
-5.73811
-5.9167
-6.14483
-6.4263
-6.76406
-7.15971
-7.61299
-8.12113
-8.67818
-9.27438
-9.89547
-10.5221
-11.1293
-11.6857
-12.1533
-12.4851
-12.6226
-12.4968
-12.0226
-11.1121
-9.67663
-7.63343
-4.92162
-1.52566
2.48557
6.89999
11.3116
15.1043
17.557
18.1474
16.9433
-10.8493
-11.1633
-11.2714
-11.204
-11.0045
-10.7163
-10.3762
-10.012
-9.64266
-9.28024
-8.93179
-8.60095
-8.2892
-7.99671
-7.72297
-7.46713
-7.22826
-7.00547
-6.79802
-6.60537
-6.42721
-6.26348
-6.11442
-5.98057
-5.86278