# vtk DataFile Version 2.0
Lid-driven cavity
ASCII
DATASET STRUCTURED_POINTS
DIMENSIONS 64 64 1
ORIGIN 0.0078125 0.0078125 0
SPACING 0.015625 0.015625 1
POINT_DATA 4096
SCALARS pressure double 1
LOOKUP_TABLE default
18.7725
18.7549
18.712
18.654
18.5903
18.5279
18.4715
18.424
18.3872
18.3619
18.3485
18.3471
18.3577
18.3803
18.4151
18.4624
18.5224
18.5958
18.6832
18.7851
18.9023
19.0354
19.185
19.3515
19.5351
19.7358
19.9533
20.187
20.4359
20.6986
20.9731
21.2573
21.5482
21.843
22.1379
22.4291
22.7125
22.9838
23.2386
23.4729
23.6829
23.8652
24.017
24.1363
24.2221
24.274
24.2927
24.2799
24.2381
24.1705
24.0812
23.9744
23.8549
23.7276
23.5974
23.4694
23.3481
23.2381
23.1437
23.0687
23.0162
22.9879
22.9827
22.9933
18.79
18.7723
18.736
18.6885
18.6365
18.5853
18.5389
18.4999
18.47
18.4502
18.4411
18.443
18.4561
18.4805
18.5165
18.5643
18.6245
18.6974
18.7836
18.8837
18.9984
19.1281
19.2734
19.4346
19.6119
19.8052
20.0142
20.2383
20.4765
20.7274
20.9893
21.2599
21.5368
21.817
22.0971
22.3736
22.6425
22.8998
23.1417
23.3642
23.5639
23.7375
23.8827
23.9977
24.0813
24.1334
24.1548
24.147
24.1124
24.0541
23.9757
23.8813
23.7752
23.6621
23.5463
23.4324
23.3246
23.2268
23.1427
23.0755
23.0275
23.0002
22.9931
23.004
18.8336
18.8081
18.7711
18.7275
18.6818
18.6378
18.5986
18.5662
18.542
18.5271
18.5219
18.5269
18.5422
18.5681
18.6049
18.6529
18.7126
18.7844
18.8689
18.9666
19.0781
19.2039
19.3444
19.5001
19.671
19.8571
20.0581
20.2735
20.5022
20.7431
20.9943
21.254
21.5196
21.7884
22.0572
22.3226
22.5808
22.828
23.0605
23.2746
23.4669
23.6345
23.7749
23.8866
23.9684
24.0204
24.0432
24.0384
24.0083
23.9559
23.8847
23.7987
23.7019
23.5986
23.4929
23.389
23.2907
23.2015
23.1246
23.0627
23.018
22.9921
22.9856
22.9992
18.8935
18.8555
18.8129
18.7683
18.7248
18.6849
18.6504
18.6228
18.6032
18.5923
18.5905
18.598
18.6151
18.6421
18.6792
18.7269
18.7855
18.8556
18.9376
19.0322
19.1398
19.2612
19.3966
19.5464
19.7108
19.8899
20.0834
20.2907
20.5111
20.7433
20.9859
21.2367
21.4936
21.7538
22.0144
22.272
22.5228
22.7634
22.9898
23.1985
23.3862
23.55
23.6875
23.797
23.8776
23.9293
23.9527
23.9494
23.9218
23.8727
23.8057
23.7246
23.6335
23.5363
23.437
23.3394
23.2472
23.1634
23.0909
23.0322
22.9894
22.9641
22.9579
22.9723
18.9605
18.9076
18.8562
18.8077
18.7635
18.725
18.6932
18.669
18.6527
18.6448
18.6455
18.655
18.6733
18.7008
18.7376
18.7843
18.8412
18.9087
18.9876
19.0783
19.1815
19.2977
19.4274
19.571
19.7288
19.9009
20.0871
20.287
20.4999
20.7248
20.9601
21.2041
21.4545
21.7087
21.9638
22.2165
22.4631
22.6999
22.9233
23.1295
23.3153
23.4775
23.614
23.7228
23.8031
23.8547
23.8784
23.8758
23.8491
23.8014
23.7362
23.6573
23.5687
23.4745
23.3783
23.2839
23.1946
23.1135
23.0429
22.9853
22.9427
22.9167
22.9091
22.9218
19.0266
18.9579
18.8962
18.8418
18.795
18.7561
18.7254
18.703
18.6889
18.6831
18.6855
18.696
18.7148
18.742
18.7779
18.8228
18.8771
18.9413
19.0161
19.1022
19.2
19.3103
19.4337
19.5706
19.7215
19.8864
20.0655
20.2584
20.4646
20.683
20.9125
21.1512
21.3971
21.6476
21.8996
22.15
22.3951
22.6312
22.8543
23.0608
23.2472
23.4104
23.5479
23.6578
23.739
23.7914
23.8156
23.8133
23.7868
23.7392
23.674
23.5951
23.5066
23.4125
23.3167
23.2227
23.1337
23.0525
22.9815
22.923
22.8787
22.8504
22.8398
22.8486
19.0855
19.0008
18.9281
18.8666
18.8158
18.7753
18.7444
18.7227
18.7097
18.7049
18.7081
18.7189
18.7373
18.7634
18.7973
18.8395
18.8902
18.9502
19.0201
19.1004
19.1921
19.2956
19.4119
19.5415
19.6848
19.8423
20.0141
20.2001
20.3999
20.6127
20.8373
21.0721
21.3152
21.5638
21.815
22.0655
22.3117
22.5497
22.7754
22.9851
23.1749
23.3417
23.4826
23.5956
23.6795
23.734
23.7597
23.7581
23.7316
23.6833
23.6169
23.5365
23.4461
23.3501
23.2521
23.156
23.0647
22.9811
22.9075
22.8459
22.7982
22.7659
22.7507
22.7541
19.1316
19.0312
18.9471
18.878
18.8225
18.7794
18.7474
18.7254
18.7125
18.7078
18.7107
18.7208
18.7379
18.7618
18.7928
18.8312
18.8774
18.932
18.9957
19.0693
19.1536
19.2494
19.3576
19.4789
19.614
19.7635
19.9276
20.1065
20.3
20.5074
20.7279
20.9598
21.2013
21.4496
21.7019
21.9547
22.2044
22.447
22.6782
22.8939
23.0903
23.2636
23.4108
23.5297
23.6186
23.6772
23.7058
23.706
23.68
23.6311
23.5631
23.4801
23.3865
23.2866
23.1845
23.0839
22.9881
22.8998
22.8213
22.7547
22.7017
22.6639
22.6428
22.6396
19.1598
19.0441
18.9488
18.8718
18.8112
18.7649
18.7311
18.708
18.6943
18.6887
18.6904
18.6988
18.7134
18.7341
18.761
18.7944
18.8348
18.8828
18.9391
19.0046
19.0802
19.1669
19.2658
19.3776
19.5035
19.644
19.7997
19.971
20.1578
20.3599
20.5763
20.8059
21.0467
21.296
21.5509
21.8081
22.0636
22.3134
22.553
22.778
22.9841
23.1674
23.3244
23.4524
23.5495
23.615
23.649
23.6528
23.6287
23.5799
23.5103
23.4243
23.3265
23.2215
23.1135
23.0065
22.904
22.8088
22.7234
22.6498
22.5897
22.5448
22.5165
22.506
19.1657
19.0351
18.9288
18.8441
18.7781
18.7282
18.6919
18.667
18.6517
18.6443
18.6438
18.6493
18.6603
18.6766
18.6981
18.7252
18.7584
18.7982
18.8456
18.9014
18.9668
19.0429
19.1308
19.2318
19.3469
19.4771
19.6232
19.7858
19.9652
20.1612
20.3734
20.6006
20.8412
21.0923
21.3511
21.6142
21.8777
22.1373
22.3884
22.6261
22.8457
23.043
23.2138
23.3551
23.4644
23.5404
23.5831
23.5934
23.5735
23.5264
23.4563
23.3676
23.2652
23.1541
23.0388
22.9237
22.8125
22.7084
22.6139
22.5313
22.4624
22.4088
22.3721
22.3535
19.1448
18.9999
18.883
18.7906
18.7192
18.6655
18.6263
18.5989
18.5811
18.571
18.5673
18.5688
18.5749
18.5854
18.6001
18.6193
18.6436
18.6736
18.7103
18.7547
18.8079
18.8714
18.9465
19.0346
19.137
19.255
19.3897
19.542
19.7124
19.9012
20.1082
20.3325
20.5726
20.8258
21.0892
21.3597
21.6332
21.9052
22.1708
22.4249
22.6623
22.8781
23.0677
23.2272
23.3537
23.4452
23.5011
23.5219
23.5094
23.4668
23.398
23.3077
23.2011
23.0834
22.9599
22.8352
22.7135
22.5984
22.4928
22.3991
22.3195
22.2557
22.2093
22.1819
19.0929
18.9343
18.8071
18.7073
18.6305
18.5727
18.5302
18.4998
18.4788
18.465
18.4569
18.4532
18.4531
18.4563
18.4626
18.4722
18.4858
18.504
18.5279
18.5586
18.5974
18.6459
18.7057
18.7784
18.8656
18.9689
19.0897
19.2293
19.3887
19.5682
19.7682
19.9881
20.2269
20.4817
20.7502
21.0289
21.314
21.6008
21.8842
22.1587
22.4185
22.6581
22.8721
23.056
23.2058
23.3189
23.3938
23.4305
23.4304
23.3961
23.3316
23.2418
23.132
23.0082
22.8758
22.7403
22.6065
22.4785
22.3596
22.2527
22.1604
22.0847
22.0274
21.9903
19.0058
18.834
18.697
18.5901
18.508
18.446
18.3998
18.3657
18.3407
18.3223
18.3087
18.2984
18.2906
18.2848
18.2809
18.279
18.2797
18.2839
18.2925
18.3069
18.3285
18.3592
18.4006
18.4547
18.5235
18.6088
18.7126
18.8363
18.9814
19.1488
19.3392
19.5524
19.7879
20.0433
20.3161
20.6034
20.9013
21.2051
21.5095
21.8085
22.0958
22.3651
22.6102
22.8256
23.0063
23.1486
23.2501
23.3097
23.3282
23.3077
23.2521
23.166
23.0553
22.9263
22.7852
22.6382
22.4908
22.3479
22.2137
22.0915
21.9844
21.8949
21.8251
21.7772
18.8794
18.6951
18.5488
18.435
18.3476
18.2813
18.231
18.1926
18.1628
18.1387
18.1183
18.1
18.0829
18.0663
18.0501
18.0345
18.02
18.0074
17.9979
17.9929
17.9941
18.0033
18.0227
18.0544
18.1007
18.1639
18.2463
18.35
18.4767
18.6281
18.8051
19.0083
19.2375
19.4911
19.7669
20.0623
20.3736
20.6962
21.0245
21.3521
21.6724
21.978
22.2618
22.5171
22.7376
22.9184
23.0556
23.1471
23.1924
23.1932
23.1525
23.0752
22.9671
22.835
22.6861
22.5273
22.3652
22.2058
22.0541
21.9143
21.7901
21.6847
21.6008
21.5407
18.7097
18.5136
18.3586
18.2382
18.1456
18.0747
18.0199
17.9766
17.941
17.9101
17.8815
17.8537
17.8254
17.7961
17.7653
17.7334
17.7009
17.6685
17.6376
17.6096
17.5863
17.5699
17.5628
17.5673
17.5862
17.6222
17.678
17.7563
17.8594
17.9895
18.1482
18.3368
18.5556
18.8039
19.0801
19.3821
19.7066
20.049
20.4038
20.7642
21.1229
21.4718
21.8027
22.1074
22.3782
22.6084
22.7926
22.927
23.0099
23.0414
23.0241
22.9623
22.862
22.7304
22.5756
22.4056
22.2283
22.0508
21.8795
21.7197
21.5761
21.4524
21.3523
21.2785
18.493
18.2858
18.1225
17.9958
17.8981
17.8224
17.7626
17.7136
17.6713
17.6323
17.5941
17.555
17.5136
17.4692
17.4214
17.3703
17.3165
17.2609
17.2047
17.1494
17.0972
17.0503
17.0113
16.983
16.9685
16.971
16.9939
17.0402
17.1132
17.2155
17.3497
17.5177
17.7206
17.9586
18.2312
18.5371
18.8733
19.2358
19.6189
20.0158
20.4185
20.8181
21.205
21.5697
21.9026
22.1951
22.4396
22.6304
22.7637
22.8382
22.8551
22.8181
22.7329
22.6072
22.4499
22.2703
22.0777
21.8811
21.6882
21.506
21.3402
21.1958
21.0771
20.9875
18.2254
18.008
17.8371
17.7044
17.6015
17.5208
17.4554
17.3999
17.3497
17.3013
17.2519
17.1996
17.1428
17.0808
17.0131
16.9397
16.8611
16.7783
16.6923
16.6051
16.5186
16.4354
16.3583
16.2906
16.2358
16.1975
16.1797
16.1863
16.2212
16.288
16.3899
16.5299
16.7099
16.9313
17.1947
17.5
17.8453
18.2268
18.6392
19.0755
19.5273
19.9847
20.437
20.873
21.2811
21.6503
21.9706
22.2337
22.4333
22.5659
22.6309
22.6307
22.5706
22.4584
22.3037
22.1174
21.9107
21.6943
21.4782
21.2711
21.0804
20.9124
20.7723
20.6645
17.9037
17.677
17.499
17.3606
17.2526
17.1664
17.0948
17.0318
16.9726
16.9133
16.8509
16.7832
16.7087
16.6263
16.5356
16.4363
16.329
16.2144
16.0939
15.9691
15.8424
15.7164
15.5942
15.4795
15.3762
15.2887
15.2214
15.1792
15.1666
15.1885
15.249
15.352
15.5007
15.6974
15.9442
16.2431
16.593
16.9911
17.4323
17.9098
18.4148
18.9369
19.464
19.983
20.4802
20.9421
21.3556
21.7092
21.9937
22.2026
22.3328
22.3848
22.3629
22.2746
22.1302
21.9421
21.7234
21.4875
21.2468
21.0124
20.7938
20.5991
20.4346
20.3058
17.5247
17.2898
17.1053
16.9615
16.8481
16.7561
16.6777
16.6062
16.5366
16.4647
16.3873
16.3021
16.2072
16.1015
15.9842
15.8552
15.7147
15.5636
15.4029
15.2346
15.061
14.8849
14.7098
14.5395
14.3787
14.2323
14.1055
14.004
13.9334
13.8996
13.9079
13.9636
14.0709
14.2335
14.4546
14.7391
15.0874
15.4975
15.9654
16.4845
17.0458
17.6383
18.2488
18.8625
19.4633
20.0346
20.5603
21.0251
21.4159
21.7226
21.9387
22.0619
22.0948
22.044
21.9204
21.7376
21.5111
21.2571
20.9911
20.7272
20.4777
20.2527
20.0604
19.9073
17.0858
16.8436
16.6534
16.5044
16.3856
16.2874
16.2012
16.1201
16.0387
15.9525
15.8581
15.7528
15.6347
15.5023
15.3549
15.1919
15.0136
14.8205
14.6138
14.3954
14.1676
13.9335
13.6967
13.4616
13.2333
13.0174
12.82
12.6476
12.5071
12.4055
12.3497
12.346
12.4004
12.5179
12.7026
12.9628
13.3011
13.717
14.2074
14.7664
15.3853
16.0525
16.7539
17.473
18.1914
18.8896
19.5475
20.1457
20.6667
21.0957
21.4219
21.6393
21.7476
21.7521
21.6631
21.4956
21.2676
20.9984
20.7073
20.4122
20.1287
19.8698
19.6458
19.4647
16.5845
16.3364
16.1411
15.9872
15.8629
15.7578
15.663
15.5712
15.4764
15.3741
15.2604
15.1325
14.9881
14.8257
14.6442
14.4428
14.2215
13.9809
13.7219
13.4463
13.1566
12.8559
12.5483
12.2384
11.9318
11.635
11.3549
11.0992
10.8759
10.6934
10.56
10.4838
10.4723
10.5322
10.6688
10.8927
11.2107
11.6238
12.1303
12.7253
13.4006
14.1446
14.9425
15.7763
16.6254
17.4671
18.2775
19.0326
19.7096
20.2881
20.752
21.0906
21.2993
21.3808
21.3445
21.2059
20.9854
20.7059
20.3912
20.0637
19.7434
19.4468
19.1868
18.9734
16.0193
15.7664
15.5669
15.4082
15.2783
15.1658
15.0615
14.9577
14.848
14.7275
14.5922
14.439
14.2653
14.0693
13.8496
13.6051
13.3358
13.0417
12.7238
12.3838
12.0241
11.648
11.2598
10.8646
10.4686
10.079
9.70365
9.35139
9.03161
8.75414
8.52898
8.36598
8.27454
8.26312
8.3389
8.51301
8.79823
9.19776
9.71155
10.3361
11.064
11.8843
12.7816
13.737
14.7278
15.7283
16.7106
17.6459
18.5055
19.2629
19.8953
20.3856
20.724
20.9089
20.9477
20.8557
20.6552
20.373
20.0379
19.6778
19.318
18.9797
18.6792
18.4288
15.3889
15.1327
14.9296
14.7666
14.6307
14.5103
14.3956
14.2784
14.1521
14.0116
13.8524
13.6711
13.465
13.2318
12.9697
12.6775
12.3547
12.0013
11.6178
11.206
10.7682
10.3077
9.82915
9.3381
8.8413
8.34668
7.86322
7.40092
6.97061
6.58373
6.25206
5.9874
5.80115
5.70389
5.70488
5.815
6.05321
6.42622
6.93602
7.58084
8.35476
9.24743
10.2439
11.3244
12.4648
13.6368
14.8086
15.9463
17.0152
17.9816
18.8151
19.4911
19.9925
20.3121
20.4532
20.43
20.266
19.9917
19.6415
19.2499
18.8487
18.4646
18.1187
17.826
14.6929
14.4348
14.229
14.0619
13.9199
13.791
13.6649
13.5331
13.3886
13.226
13.0406
12.8286
12.5869
12.3128
12.0044
11.6599
11.2785
10.8598
10.4043
9.9134
9.38938
8.83576
8.25727
7.65992
7.0511
6.43952
5.83525
5.24956
4.69476
4.18403
3.73103
3.34962
3.05339
2.85519
2.76662
2.7985
2.97419
3.30595
3.79822
4.4514
5.26138
6.21916
7.31053
8.51579
9.80978
11.1621
12.5375
13.8973
15.2005
16.4057
17.4741
18.3718
19.073
19.5627
19.8385
19.9113
19.8048
19.5528
19.1956
18.7751
18.3312
17.8977
17.5011
17.1604
13.9315
13.673
13.4653
13.2944
13.1462
13.0082
12.8698
12.7221
12.5579
12.3713
12.1575
11.9122
11.632
11.3137
10.9551
10.5539
10.109
9.61952
9.08578
8.50888
7.89111
7.23599
6.54848
5.83499
5.10351
4.36364
3.62649
2.90466
2.21203
1.56353
0.974821
0.461917
0.0407089
-0.27355
-0.466814
-0.526842
-0.429822
-0.155529
0.303743
0.950828
1.78387
2.79577
3.9737
5.2987
6.74537
8.28194
9.87053
11.468
13.0271
14.4989
15.8352
16.9917
17.9321
18.6312
19.0785
19.2796
19.2566
19.0456
18.6927
18.2484
17.7616
17.2752
16.8227
16.4277
13.1057
12.8483
12.6396
12.4652
12.3107
12.1632
12.0116
11.8469
11.6615
11.4493
11.205
10.924
10.6026
10.2371
9.82466
9.36287
8.8499
8.2847
7.66712
6.99806
6.27968
5.51555
4.7108
3.87226
3.00854
2.13008
1.24909
0.37952
-0.463176
-1.26225
-2.00001
-2.65822
-3.21864
-3.6635
-3.97622
-4.14208
-4.13895
-3.93901
-3.52963
-2.90519
-2.06491
-1.01345
0.23839
1.67315
3.26613
4.98514
6.7905
8.63549
10.4675
12.2298
13.8645
15.3162
16.5359
17.4865
18.1464
18.5132
18.6048
18.4582
18.1249
17.6641
17.1359
16.5937
16.0798
15.6239
12.2172
11.9623
11.7535
11.5761
11.4152
11.2577
11.0923
10.9096
10.7018
10.4625
10.186
9.86738
9.50234
9.08697
8.61782
8.092
7.50722
6.86201
6.15583
5.38934
4.56454
3.68501
2.75606
1.78491
0.780781
-0.245045
-1.27924
-2.30654
-3.30988
-4.2707
-5.16925
-5.9851
-6.69756
-7.28637
-7.73228
-8.01782
-8.12232
-8.01332
-7.6715
-7.08778
-6.25841
-5.18518
-3.87619
-2.34663
-0.619523
1.27365
3.29257
5.38815
7.50324
9.57419
11.5336
13.3138
14.8526
16.0979
17.0145
17.5887
17.8313
17.7776
17.4833
17.0169
16.4505
15.8503
15.2697
14.7458
11.2685
11.0177
10.8096
10.6295
10.4623
10.2946
10.1148
9.91341
9.68231
9.41468
9.10459
8.74676
8.33637
7.86905
7.34087
6.74841
6.08888
5.36036
4.56193
3.69394
2.75824
1.75837
0.69983
-0.409793
-1.56068
-2.74072
-3.9355
-5.12843
-6.30086
-7.43245
-8.50144
-9.48518
-10.3606
-11.105
-11.6964
-12.1145
-12.3391
-12.3359
-12.0793
-11.5551
-10.7565
-9.68183
-8.33608
-6.73136
-4.88803
-2.83567
-0.613836
1.72746
4.12793
6.51815
8.82176
10.9593
12.8536
14.4364
15.6555
16.4825
16.9172
16.9901
16.759
16.3013
15.7023
15.0432
14.3907
13.7914
10.2626
10.0173
9.81099
9.62867
9.4553
9.27726
9.08287
8.86228
8.60722
8.31057
7.96605
7.56797
7.11108
6.59052
6.00181
5.34103
4.60488
3.79094
2.8979
1.92579
0.876268
-0.247135
-1.43878
-2.69074
-3.9926
-5.33144
-6.6918
-8.05579
-9.40325
-10.7121
-11.9586
-13.118
-14.165
-15.0742
-15.8214
-16.3833
-16.739
-16.8545
-16.6995
-16.2537
-15.5063
-14.4523
-13.093
-11.4368
-9.50042
-7.31031
-4.90382
-2.33017
0.349014
3.06012
5.71925
8.23563
10.517
12.4771
14.0444
15.1716
15.8435
16.0817
15.943
15.5123
14.8891
14.1715
13.4423
12.76
9.20349
8.96506
8.76133
8.57738
8.39814
8.20991
8.00086
7.76099
7.48179
7.15588
6.77664
6.33798
5.83421
5.25995
4.61022
3.88054
3.0671
2.16699
1.17848
0.101271
-1.06317
-2.31136
-3.63754
-5.03343
-6.48808
-7.98779
-9.51609
-11.0538
-12.5795
-14.0692
-15.4974
-16.8374
-18.0616
-19.1426
-20.0533
-20.7683
-21.2642
-21.5092
-21.4696
-21.12
-20.4442
-19.4338
-18.086
-16.4049
-14.403
-12.1024
-9.53665
-6.75247
-3.81075
-0.787112
2.22889
5.13653
7.829
10.2012
12.1599
13.6353
14.5925
15.0389
15.0267
14.6458
14.0098
13.2358
12.4258
11.6527
8.09553
7.8652
7.66492
7.47997
7.29531
7.09724
6.87386
6.61502
6.31202
5.9572
5.54364
5.06484
4.51467
3.88726
3.17711
2.37918
1.48915
0.503617
-0.579582
-1.76106
-3.03958
-4.41171
-5.87158
-7.4106
-9.0173
-10.6773
-12.3731
-14.0844
-15.7883
-17.4595
-19.0706
-20.5931
-21.9973
-23.2537
-24.3331
-25.2076
-25.8513
-26.2344
-26.3211
-26.0832
-25.4984
-24.5541
-23.2433
-21.5659
-19.529
-17.1498
-14.4565
-11.4915
-8.31277
-4.99538
-1.6321
1.66857
4.78661
7.5982
9.98677
11.8568
13.1485
13.8499
14.0029
13.6991
13.0652
12.2391
11.3449
10.473
6.94364
6.72247
6.52647
6.34119
6.15175
5.94449
5.70747
5.43045
5.10454
4.72185
4.27512
3.7575
3.16241
2.48348
1.71471
0.85052
-0.113936
-1.18254
-2.35789
-3.64093
-5.03064
-6.52366
-8.11404
-9.7929
-11.5483
-13.3652
-15.2252
-17.107
-18.9864
-20.8365
-22.6286
-24.3323
-25.9163
-27.349
-28.5992
-29.6369
-30.4338
-30.961
-31.1826
-31.0683
-30.5918
-29.7346
-28.486
-26.8409
-24.8015
-22.3786
-19.5944
-16.485
-13.1032
-9.52096
-5.83124
-2.14747
1.39941
4.668
7.51784
9.82495
11.5
12.5053
12.8662
12.6714
12.0584
11.1868
10.2059
9.22731
5.75308
5.54194
5.35099
5.16612
4.97272
4.75721
4.50769
4.21381
3.86654
3.45774
2.97986
2.42568
1.78818
1.06054
0.236238
-0.690819
-1.726
-2.87366
-4.13683
-5.51678
-7.01273
-8.62141
-10.3368
-12.1498
-14.048
-16.0157
-18.0339
-20.0802
-22.1293
-24.153
-26.1212
-28.002
-29.7624
-31.3692
-32.7894
-33.9912
-34.9442
-35.6193
-35.9817
-35.9996
-35.6452
-34.894
-33.7308
-32.146
-30.1362
-27.7061
-24.8706
-21.6582
-18.1144
-14.3053
-10.3209
-6.27599
-2.30927
1.42256
4.7557
7.53607
9.64054
10.9995
11.6146
11.5649
10.9953
10.0874
9.01871
7.92572
4.52934
4.32887
4.14363
3.95999
3.76364
3.54119
3.28074
2.97191
2.60552
2.17319
1.66708
1.07962
0.403372
-0.368944
-1.24436
-2.22945
-3.3301
-4.55115
-5.89602
-7.36634
-8.96154
-10.6785
-12.5111
-14.4501
-16.4828
-18.5929
-20.7607
-22.9629
-25.1731
-27.3623
-29.499
-31.5498
-33.4806
-35.2566
-36.8433
-38.2073
-39.3167
-40.1413
-40.6477
-40.8039
-40.581
-39.9515
-38.8941
-37.3951
-35.4458
-33.0445
-30.1983
-26.9272
-23.2675
-19.2771
-15.0393
-10.6667
-6.30171
-2.11296
1.71439
4.99574
7.57096
9.33228
10.2497
10.3851
9.88574
8.95356
7.79728
6.58244
3.27799
3.08856
2.9096
2.72804
2.52996
2.3022
2.03293
1.71169
1.32917
0.876758
0.346324
-0.270069
-0.980257
-1.79197
-2.71272
-3.74958
-4.90891
-6.19603
-7.61476
-9.16708
-10.8527
-12.6685
-14.6086
-16.6634
-18.8199
-21.0616
-23.3679
-25.7151
-28.0757
-30.4198
-32.7148
-34.9263
-37.0189
-38.9567
-40.704
-42.2259
-43.4893
-44.4628
-45.1142
-45.4118
-45.3263
-44.8296
-43.895
-42.504
-40.6432
-38.3044
-35.4872
-32.2023
-28.4756
-24.3544
-19.9124
-15.2558
-10.5261
-5.89967
-1.57957
2.22018
5.30048
7.50996
8.77881
9.14263
8.74388
7.80263
6.56058
5.21673
2.00451
1.82617
1.65391
1.47532
1.27696
1.04591
0.77043
0.440013
0.0451538
-0.422974
-0.972823
-1.61269
-2.35081
-3.19537
-4.15434
-5.23529
-6.44506
-7.78939
-9.27254
-10.8968
-12.6622
-14.5658
-16.6016
-18.76
-21.028
-23.3884
-25.8203
-28.2993
-30.7975
-33.2839
-35.7251
-38.0858
-40.3297
-42.4198
-44.3194
-45.9928
-47.4055
-48.5251
-49.3203
-49.76
-49.8151
-49.4575
-48.6586
-47.3936
-45.6449
-43.3988
-40.6475
-37.3921
-33.6475
-29.4485
-24.8567
-19.9677
-14.9178
-9.88517
-5.08663
-0.762687
2.84821
5.54682
7.2154
7.85331
7.58946
6.65754
5.3333
3.85374
0.714133
0.546576
0.381263
0.206559
0.00955641
-0.222363
-0.500858
-0.836524
-1.23906
-1.71759
-2.28089
-2.93764
-3.6965
-4.56611
-5.5549
-6.67092
-7.92148
-9.31278
-10.8495
-12.5342
-14.3672
-16.3458
-18.4641
-20.7125
-23.0777
-25.5424
-28.0853
-30.6816
-33.3027
-35.9171
-38.4907
-40.9876
-43.3705
-45.6017
-47.6437
-49.4601
-51.0155
-52.2767
-53.2125
-53.7927
-53.9888
-53.773
-53.1172
-51.9919
-50.3745
-48.2464
-45.5932
-42.4069
-38.6912
-34.4673
-29.7824
-24.7183
-19.4007
-14.0046
-8.75434
-3.91267
0.244196
3.46636
5.58077
6.53995
6.44869
5.54778
4.1469
2.52539
-0.588352
-0.745832
-0.904147
-1.07406
-1.26784
-1.4978
-1.77553
-2.11174
-2.51642
-2.99901
-3.56871
-4.23461
-5.00584
-5.89149
-6.90048
-8.04133
-9.32181
-10.7486
-12.3266
-14.0591
-15.9464
-17.986
-20.1723
-22.4956
-24.9427
-27.496
-30.1341
-32.8317
-35.56
-38.287
-40.978
-43.5965
-46.1048
-48.4646
-50.6378
-52.5872
-54.2771
-55.6735
-56.745
-57.4623
-57.7976
-57.7237
-57.2133
-56.2363
-54.7641
-52.7739
-50.2454
-47.1626
-43.518
-39.3192
-34.5972
-29.4174
-23.8905
-18.1822
-12.5181
-7.17721
-2.46993
1.30234
3.90511
5.23324
5.35529
4.51047
3.04059
1.27147
-1.89877
-2.04732
-2.19883
-2.36305
-2.55155
-2.77628
-3.04881
-3.38007
-3.7804
-4.25969
-4.82762
-5.49381
-6.26787
-7.1594
-8.17782
-9.33214
-10.6306
-12.0803
-13.6866
-15.453
-17.3803
-19.4661
-21.705
-24.0874
-26.6
-29.2254
-31.942
-34.7242
-37.5431
-40.3662
-43.1587
-45.8837
-48.503
-50.9778
-53.2698
-55.3412
-57.1559
-58.6796
-59.8805
-60.7299
-61.2005
-61.2661
-60.9003
-60.0745
-58.7563
-56.918
-54.5345
-51.5828
-48.0453
-43.9161
-39.2098
-33.9727
-28.297
-22.3338
-16.3028
-10.4919
-5.24065
-0.900368
2.22852
3.97292
4.35171
3.59152
2.06256
0.140722
-3.21376
-3.35502
-3.50018
-3.65784
-3.83877
-4.05454
-4.31676
-4.6367
-5.02519
-5.49273
-6.04961
-6.70606
-7.47229
-8.35847
-9.37455
-10.53
-11.8337
-13.2929
-14.9136
-16.6996
-18.6519
-20.7685
-23.044
-25.4691
-28.0307
-30.7111
-33.489
-36.3387
-39.231
-42.1335
-45.0111
-47.8268
-50.5419
-53.1177
-55.5153
-57.6968
-59.6258
-61.2677
-62.5903
-63.5652
-64.1657
-64.3665
-64.142
-63.4653
-62.3047
-60.6264
-58.4016
-55.6015
-52.1995
-48.1773
-43.5329
-38.293
-32.528
-26.3693
-20.0241
-13.7815
-8.00262
-3.08523
0.6021
2.80896
3.49035
2.84692
1.27127
-0.807781
-4.53097
-4.66712
-4.80668
-4.95696
-5.12777
-5.33034
-5.5764
-5.87771
-6.24581
-6.692
-7.22738
-7.86295
-8.60963
-9.47823
-10.4793
-11.6229
-12.9182
-14.3731
-15.9939
-17.7847
-19.7467
-21.8784
-24.1745
-26.626
-29.2196
-31.9381
-34.7601
-37.6599
-40.6086
-43.5736
-46.5199
-49.4102
-52.206
-54.8682
-57.3579
-59.6371
-61.6689
-63.4189
-64.8544
-65.9471
-66.6707
-67.0005
-66.912
-66.3795
-65.3739
-63.8585
-61.7996
-59.1639
-55.9176
-52.031
-47.4867
-42.2911
-36.4915
-30.1957
-23.5915
-16.9612
-10.6792
-5.18373
-0.911223
1.80281
2.83494
2.34422
0.737059
-1.50309
-5.84929
-5.98317
-6.11824
-6.26025
-6.4181
-6.60264
-6.82585
-7.10018
-7.43819
-7.85223
-8.35448
-8.9569
-9.67129
-10.5092
-11.4819
-12.5999
-13.873
-15.3094
-16.9158
-18.6966
-20.6534
-22.7847
-25.0855
-27.5471
-30.1563
-32.8962
-35.7454
-38.6786
-41.6668
-44.6777
-47.6763
-50.6255
-53.4867
-56.2209
-58.7891
-61.153
-63.276
-65.1231
-66.6619
-67.8635
-68.7021
-69.1533
-69.1935
-68.7983
-67.9403
-66.5852
-64.6932
-62.2274
-59.1482
-55.4164
-51.0002
-45.8869
-40.0997
-33.7196
-26.9102
-19.9385
-13.1834
-7.11521
-2.23581
1.02867
2.46209
2.16431
0.543941
-1.86051
-7.16895
-7.30415
-7.4363
-7.56933
-7.71096
-7.87182
-8.06443
-8.30229
-8.59923
-8.96906
-9.42531
-9.98121
-10.6496
-11.443
-12.3734
-13.4518
-14.6886
-16.0924
-17.6701
-19.4265
-21.3635
-23.4797
-25.7705
-28.2272
-30.8369
-33.5827
-36.4435
-39.3943
-42.4061
-45.4469
-48.482
-51.4743
-54.3855
-57.1768
-59.8093
-62.2447
-64.4464
-66.3795
-68.0111
-69.3118
-70.256
-70.8195
-70.9794
-70.7123
-69.9924
-68.7885
-67.0586
-64.7612
-61.8521
-58.2842
-54.0134
-49.009
-43.2703
-36.8502
-29.8835
-22.6151
-15.4183
-8.78689
-3.2825
0.574916
2.46313
2.4034
0.79189
-1.77931
-8.49177
-8.6327
-8.764
-8.88737
-9.00923
-9.14004
-9.29315
-9.48355
-9.72696
-10.0391
-10.4352
-10.9301
-11.538
-12.2725
-13.1463
-14.1713
-15.358
-16.7158
-18.2517
-19.9706
-21.8747
-23.9629
-26.2304
-28.6687
-31.2652
-34.003
-36.8612
-39.8148
-42.8354
-45.8911
-48.9474
-51.9676
-54.9138
-57.7473
-60.4295
-62.9225
-65.1896
-67.1959
-68.9088
-70.2982
-71.3379
-72.0037
-72.2727
-72.1223
-71.5282
-70.4618
-68.8837
-66.7463
-64.002
-60.5974
-56.4778
-51.5961
-45.929
-39.501
-32.415
-24.888
-17.2787
-10.0939
-3.94764
0.545806
2.94624
3.17565
1.59958
-1.13993
-9.82143
-9.97353
-10.1065
-10.2195
-10.3175
-10.4109
-10.5143
-10.6449
-10.8208
-11.0602
-11.3807
-11.7992
-12.3315
-12.9922
-13.7952
-14.753
-15.8767
-17.1757
-18.6575
-20.3271
-22.1865
-24.2349
-26.4673
-28.8754
-31.4466
-34.1641
-37.0071
-39.9508
-42.967
-46.0241
-49.088
-52.1222
-55.0893
-57.951
-60.669
-63.2056
-65.5246
-67.5912
-69.3728
-70.8389
-71.963
-72.7202
-73.0871
-73.0409
-72.5577
-71.611
-70.1666
-68.1749
-65.5821
-62.3304
-58.3559
-53.5972
-48.0102
-41.5912
-34.4103
-26.6515
-18.6512
-10.9189
-4.11191
1.06352
4.03915
4.61621
3.10788
0.199659
-11.1638
-11.3338
-11.4715
-11.5732
-11.6423
-11.6896
-11.7315
-11.7881
-11.8807
-12.0308
-12.2591
-12.5846
-13.0253
-13.5972
-14.3152
-15.1925
-16.2406
-17.4691
-18.8857
-20.4952
-22.2997
-24.2981
-26.4856
-28.8535
-31.3893
-34.0761
-36.8934
-39.8164
-42.8172
-45.8643
-48.9239
-51.9602
-54.9359
-57.8132
-60.5541
-63.1215
-65.4793
-67.593
-69.4302
-70.9605
-72.1563
-72.9926
-73.4451
-73.4901
-73.1031
-72.2576
-70.9214
-69.0503
-66.5876
-63.4689
-59.6217
-54.9722
-49.4573
-43.0467
-35.7775
-27.7978
-19.4152
-11.1319
-3.6387
2.27079
5.89256
6.88526
5.4842
2.40844
-12.5278
-12.7237
-12.8699
-12.9588
-12.9927
-12.9832
-12.9496
-12.9156
-12.9071
-12.9496
-13.0673
-13.2825
-13.6151
-14.083
-14.702
-15.4861
-16.447
-17.5945
-18.9361
-20.4766
-22.2176
-24.1579
-26.2923
-28.6122
-31.1045
-33.7527
-36.5359
-39.4297
-42.4061
-45.434
-48.4799
-51.5083
-54.4823
-57.3645
-60.1173
-62.7039
-65.0885
-67.237
-69.117
-70.6983
-71.9527
-72.8545
-73.3786
-73.5002
-73.1934
-72.4305
-71.179
-69.3976
-67.0286
-64.0086
-60.2592
-55.6903
-50.222
-43.7996
-36.4275
-28.2171
-19.442
-10.589
-2.37188
4.33437
8.68458
10.1731
8.92821
5.68821
-13.9255
-14.1577
-14.3164
-14.3904
-14.3808
-14.3013
-14.175
-14.0311
-13.901
-13.8155
-13.803
-13.8893
-14.097
-14.4458
-14.9525
-15.6315
-16.4949
-17.5524
-18.811
-20.2751
-21.9462
-23.8222
-25.8978
-28.1638
-30.6072
-33.2109
-35.9541
-38.8125
-41.758
-44.7599
-47.7849
-50.7977
-53.7619
-56.6404
-59.3959
-61.992
-64.393
-66.5651
-68.4761
-70.0956
-71.3952
-72.3482
-72.9287
-73.1103
-72.8656
-72.1648
-70.9736
-69.2502
-66.9379
-63.967
-60.2616
-55.7293
-50.264
-43.7875
-36.2738
-27.7971
-18.5946
-9.13052
-0.132744
7.44956
12.6264
14.7069
13.6791
10.2811
-15.3744
-15.6555
-15.8315
-15.887
-15.8228
-15.6561
-15.4162
-15.1393
-14.8641
-14.6276
-14.4636
-14.4019
-14.4677
-14.6826
-15.0644
-15.628
-16.3851
-17.3452
-18.5148
-19.8975
-21.4941
-23.3021
-25.3153
-27.5242
-29.9152
-32.471
-35.1708
-37.9899
-40.9005
-43.8719
-46.8711
-49.8632
-52.8118
-55.6803
-58.4316
-61.0294
-63.4383
-65.6246
-67.5558
-69.2017
-70.5334
-71.5233
-72.144
-72.3677
-72.165
-71.5032
-70.345
-68.6458
-66.3492
-63.3789
-59.6527
-55.0774
-49.5484
-42.9521
-35.2304
-26.4216
-16.7252
-6.57862
3.28409
11.8461
17.9701
20.7594
20.0254
16.4797
-16.898
-17.2442
-17.4428
-17.4741
-17.3401
-17.064
-16.6839
-16.2461
-15.7982
-15.3852
-15.0468
-14.8171
-14.7242
-14.7914
-15.0371
-15.4762
-16.1203
-16.9778
-18.0544
-19.3529
-20.873
-22.6114
-24.5611
-26.7118
-29.0495
-31.5564
-34.2115
-36.9899
-39.8639
-42.8029
-45.7739
-48.7422
-51.6718
-54.5262
-57.2685
-59.8625
-62.2728
-64.4656
-66.4082
-68.0698
-69.4213
-70.4342
-71.0791
-71.3262
-71.1433
-70.4948
-69.3393
-67.6276
-65.2995
-62.2756
-58.4619
-53.7574
-48.0526
-41.2375
-33.2104
-23.9684
-13.6736
-2.73389
8.11568
17.7956
25.0185
28.6609
28.3178
24.6401
-18.5292
-18.9611
-19.1873
-19.1848
-18.9599
-18.5452
-17.9917
-17.3587
-16.7059
-16.0876
-15.5502
-15.1321
-14.8642
-14.7708
-14.8709
-15.1787
-15.705
-16.457
-17.4392
-18.653
-20.097
-21.7666
-23.6539
-25.7477
-28.0335
-30.4929
-33.1043
-35.8429
-38.6809
-41.5875
-44.53
-47.4739
-50.3832
-53.2215
-55.9522
-58.5389
-60.9462
-63.1396
-65.0864
-66.7549
-68.115
-69.1375
-69.7909
-70.0424
-69.8565
-69.1934
-68.0069
-66.2417
-63.8309
-60.6906
-56.7142
-51.7876
-45.7892
-38.6002
-30.1242
-20.3075
-9.26412
2.62819
14.6366
25.621
34.1382
38.8154
38.9875
35.201
-20.3141
-20.858
-21.1158
-21.0637
-20.7171
-20.1245
-19.355
-18.4855
-17.5898
-16.7337
-15.9709
-15.3439
-14.8855
-14.6206
-14.5675
-14.7396
-15.1459
-15.7921
-16.6808
-17.8119
-19.1825
-20.7864
-22.6147
-24.6553
-26.8925
-29.3077
-31.8787
-34.5804
-37.3848
-40.2613
-43.177
-46.0976
-48.9873
-51.8097
-54.528
-57.1058
-59.5072
-61.6975
-63.6428
-65.3106
-66.6695
-67.6887
-68.3356
-68.5729
-68.3606
-67.6537
-66.3999
-64.5363
-61.9869
-58.6587
-54.434
-49.1802
-42.7585
-35.0328
-25.8948
-15.2997
-3.30438
9.76002
23.1641
35.7064
45.7761
51.723
52.572
48.7109
-22.3193
-23.0091
-23.2991
-23.1707
-22.6572
-21.8326
-20.792
-19.6348
-18.4523
-17.322
-16.3058
-15.4495
-14.7866
-14.3412
-14.1301
-14.1646
-14.4515
-14.9941
-15.793
-16.8459
-18.1479
-19.6915
-21.4663
-23.459
-25.6531
-28.0292
-30.5647
-33.2341
-36.0092
-38.8593
-41.7517
-44.6519
-47.5242
-50.332
-53.0387
-55.6074
-58.0017
-60.1861
-62.1258
-63.7867
-65.1356
-66.1397
-66.7649
-66.9696
-66.7076
-65.9271
-64.5679
-62.5576
-59.8087
-56.2146
-51.6451
-45.945
-38.953
-30.5095
-20.4838
-8.81778
4.41376
18.9417
34.0613
48.5062
60.4792
68.01
69.7532
65.8693
-24.6437
-25.5223
-25.8373
-25.5871
-24.8391
-23.7071
-22.3227
-20.8141
-19.293
-17.8489
-16.55
-15.4448
-14.5655
-13.9335
-13.5626
-13.4608
-13.6317
-14.0758
-14.7909
-15.7722
-17.0128
-18.5034
-20.2319
-22.1839
-24.3418
-26.6855
-29.1917
-31.8347
-34.586
-37.4148
-40.2883
-43.1719
-46.03
-48.826
-51.5227
-54.083
-56.4699
-58.6467
-60.5773
-62.226
-63.5571
-64.5349
-65.1227
-65.2767
-64.9418
-64.0576
-62.5537
-60.3461
-57.3326
-53.3898
-48.3685
-42.09
-34.3631
-24.9978
-13.8327
-0.782968
14.0879
30.4742
47.7326
64.5497
78.9143
88.4701
91.4147
87.5931
-27.4388
-28.559
-28.8743
-28.4247
-27.3388
-25.7921
-23.9673
-22.0281
-20.1076
-18.3065
-16.6959
-15.3237
-14.2189
-13.3975
-12.8684
-12.6349
-12.6965
-13.05
-13.6897
-14.6084
-15.7966
-17.243
-18.934
-20.8536
-22.9834
-25.3024
-27.7866
-30.41
-33.1438
-35.9569
-38.8165
-41.6881
-44.5357
-47.3226
-50.0115
-52.5644
-54.9437
-57.1115
-59.03
-60.6613
-61.9671
-62.9082
-63.4433
-63.5271
-63.0961
-62.078
-60.3898
-57.9327
-54.5872
-50.2084
-44.6224
-37.6229
-28.982
-18.4707
-5.88629
8.89545
25.8413
44.6493
64.606
84.4311
101.882
114.115
118.728
115.125
-30.9446
-32.3672
-32.6205
-31.8362
-30.2513
-28.1362
-25.7418
-23.2728
-20.8827
-18.678
-16.728
-15.0744
-13.7392
-12.73
-12.0484
-11.6916
-11.6538
-11.9272
-12.5027
-13.3697
-14.5162
-15.9287
-17.592
-19.4887
-21.5993
-23.9017
-26.3717
-28.9826
-31.7052
-34.5085
-37.3594
-40.2232
-43.0639
-45.8445
-48.5272
-51.0736
-53.4448
-55.6018
-57.5048
-59.1136
-60.3867
-61.2806
-61.749
-61.7415
-61.1909
-60.0085
-58.0964
-55.3378
-51.592
-46.6887
-40.4234
-32.556
-22.8144
-10.921
3.38154
20.2748
39.7788
61.6274