# vtk DataFile Version 2.0
Lid-driven cavity
ASCII
DATASET STRUCTURED_POINTS
DIMENSIONS 64 64 1
ORIGIN 0.0078125 0.0078125 0
SPACING 0.015625 0.015625 1
POINT_DATA 4096
SCALARS pressure double 1
LOOKUP_TABLE default
2.35162
2.3446
2.33271
2.32014
2.3098
2.30352
2.30237
2.30692
2.31746
2.33405
2.35668
2.38524
2.41963
2.45972
2.50539
2.55652
2.61301
2.67475
2.74165
2.81362
2.89054
2.97232
3.05881
3.14989
3.24537
3.34507
3.44874
3.55613
3.66692
3.78077
3.89729
4.01603
4.13651
4.25821
4.38057
4.50298
4.6248
4.74536
4.86394
4.97983
5.09231
5.20067
5.30421
5.40229
5.4943
5.57969
5.658
5.72884
5.7919
5.84699
5.89401
5.93295
5.96394
5.98718
6.00301
6.01186
6.0143
6.01104
6.00298
5.99128
5.97746
5.96352
5.95213
5.94655
2.35865
2.35159
2.34214
2.33283
2.32569
2.32218
2.32325
2.32949
2.34124
2.35866
2.38177
2.41057
2.44497
2.48491
2.53028
2.58099
2.63696
2.69808
2.76428
2.83545
2.91149
2.99228
3.0777
3.1676
3.2618
3.36011
3.46228
3.56805
3.6771
3.78911
3.90366
4.02034
4.13866
4.25812
4.37816
4.4982
4.61762
4.73575
4.85192
4.96543
5.0756
5.18173
5.28317
5.3793
5.46954
5.55337
5.63036
5.70013
5.76242
5.81703
5.8639
5.90304
5.93458
5.95876
5.97591
5.98649
5.99107
5.99038
5.98528
5.97687
5.96646
5.9557
5.9465
5.94096
2.37062
2.36096
2.35142
2.34332
2.3379
2.33616
2.33883
2.34642
2.35921
2.37739
2.40101
2.43008
2.46458
2.50445
2.54961
2.6
2.65553
2.71613
2.78172
2.8522
2.92747
3.00742
3.09191
3.18081
3.27393
3.37107
3.472
3.57645
3.68412
3.79466
3.90768
4.02277
4.13944
4.25719
4.3755
4.49379
4.61144
4.72781
4.84224
4.95405
5.06256
5.16711
5.26706
5.3618
5.45077
5.53348
5.60951
5.67849
5.74019
5.79442
5.84114
5.88037
5.91227
5.93707
5.95512
5.96689
5.97295
5.97398
5.97081
5.96438
5.9558
5.94631
5.93719
5.92968
2.38339
2.37018
2.35923
2.35104
2.34626
2.3455
2.34922
2.35778
2.37141
2.39023
2.41432
2.44369
2.47832
2.51817
2.56319
2.61333
2.66852
2.72869
2.79376
2.86366
2.93828
3.01751
3.10124
3.18931
3.28155
3.37776
3.47772
3.58116
3.68778
3.79723
3.90914
4.02309
4.1386
4.25519
4.37232
4.48944
4.60595
4.72119
4.83452
4.94526
5.05274
5.15631
5.25533
5.34921
5.43739
5.51938
5.59478
5.66325
5.72453
5.77848
5.82505
5.86428
5.89635
5.92149
5.94007
5.95255
5.95948
5.96151
5.95938
5.95391
5.94598
5.9365
5.92627
5.91592
2.39396
2.37711
2.36416
2.35516
2.35033
2.34995
2.35426
2.36348
2.37771
2.39706
2.42155
2.45118
2.48596
2.52583
2.57077
2.62072
2.67564
2.73546
2.80012
2.86954
2.94363
3.02229
3.10541
3.19284
3.28441
3.37994
3.4792
3.58192
3.68783
3.79657
3.90778
4.02103
4.13587
4.2518
4.36831
4.48484
4.60078
4.7155
4.82833
4.93861
5.04565
5.14881
5.24744
5.34095
5.42879
5.51046
5.58556
5.65375
5.71479
5.76855
5.81498
5.85415
5.88623
5.91147
5.93026
5.94302
5.95031
5.95274
5.95095
5.94567
5.93758
5.92735
5.91546
5.90217
2.4003
2.38007
2.36497
2.35479
2.34949
2.3491
2.35367
2.36326
2.37792
2.39764
2.42245
2.45232
2.48723
2.52715
2.57204
2.62186
2.67658
2.73613
2.80047
2.86952
2.94322
3.02146
3.10413
3.1911
3.28223
3.37731
3.47613
3.57845
3.68398
3.79239
3.9033
4.0163
4.13094
4.24673
4.36314
4.47963
4.59559
4.71036
4.82329
4.93368
5.04085
5.14414
5.2429
5.33652
5.42444
5.50616
5.58127
5.64943
5.71041
5.76408
5.8104
5.84945
5.8814
5.90655
5.92524
5.93795
5.94517
5.9475
5.94554
5.93988
5.93112
5.91973
5.90602
5.89005
2.401
2.37776
2.36058
2.3491
2.34311
2.34245
2.34704
2.35681
2.37171
2.39171
2.41676
2.44681
2.48184
2.52181
2.56669
2.61643
2.67101
2.73038
2.79449
2.8633
2.93672
3.01468
3.09709
3.1838
3.27469
3.36957
3.46824
3.57046
3.67595
3.78439
3.89541
4.0086
4.12351
4.23965
4.35649
4.47349
4.59002
4.70541
4.819
4.93007
5.03793
5.14188
5.24127
5.33546
5.42388
5.50601
5.58144
5.64982
5.71091
5.76459
5.81083
5.84971
5.88144
5.90631
5.92468
5.93702
5.94384
5.94569
5.94314
5.93674
5.92698
5.91425
5.89878
5.88054
2.39509
2.36921
2.35011
2.33734
2.33055
2.32949
2.33393
2.34373
2.35877
2.37893
2.40415
2.43435
2.46948
2.50951
2.55439
2.6041
2.65861
2.71787
2.78186
2.85053
2.92382
3.00166
3.08396
3.17062
3.26149
3.35642
3.45522
3.55764
3.66343
3.77227
3.8838
3.99761
4.11326
4.23024
4.34804
4.46608
4.58373
4.70031
4.81511
4.92741
5.0365
5.14164
5.24215
5.33737
5.4267
5.50961
5.58566
5.65449
5.71587
5.76967
5.81587
5.85457
5.88599
5.91042
5.92827
5.94
5.94613
5.9472
5.94377
5.93635
5.92541
5.91129
5.8942
5.87412
2.38183
2.35367
2.33283
2.31883
2.31123
2.30969
2.3139
2.32364
2.3387
2.35896
2.38429
2.4146
2.44982
2.48991
2.53483
2.58455
2.63905
2.69829
2.76225
2.8309
2.90418
2.98206
3.06444
3.15123
3.24232
3.33755
3.43674
3.53968
3.6461
3.7557
3.86814
3.98301
4.09986
4.21818
4.33744
4.45706
4.57637
4.69468
4.81126
4.92536
5.03621
5.14307
5.24519
5.3419
5.43256
5.51661
5.59359
5.66313
5.72498
5.77901
5.82522
5.86372
5.89474
5.91862
5.93576
5.94666
5.95186
5.95191
5.94737
5.93876
5.92653
5.91104
5.8925
5.87096
2.36069
2.33052
2.30813
2.29299
2.28461
2.28257
2.28649
2.2961
2.31114
2.33144
2.35683
2.38723
2.42253
2.4627
2.50768
2.55745
2.612
2.67129
2.73532
2.80406
2.87749
2.95555
3.03818
3.12531
3.21683
3.3126
3.41247
3.51622
3.62361
3.73435
3.84809
3.96444
4.08294
4.20308
4.32432
4.44604
4.56757
4.68817
4.80709
4.92354
5.03671
5.1458
5.25005
5.34872
5.44114
5.5267
5.60493
5.67543
5.73793
5.79233
5.8386
5.8769
5.90746
5.93066
5.94694
5.95683
5.96089
5.95971
5.95388
5.94393
5.93034
5.91351
5.89369
5.87099
2.33121
2.29928
2.2755
2.25932
2.2502
2.24766
2.25128
2.26072
2.2757
2.296
2.32144
2.3519
2.38728
2.42753
2.47261
2.52248
2.57713
2.63656
2.70075
2.7697
2.84339
2.92178
3.00484
3.0925
3.18467
3.28123
3.38203
3.48689
3.59557
3.70779
3.82322
3.94147
4.06208
4.18453
4.30825
4.43261
4.5569
4.68036
4.80218
4.92155
5.0376
5.14948
5.25638
5.3575
5.45211
5.53959
5.6194
5.69113
5.75451
5.80939
5.8558
5.89389
5.92393
5.94635
5.96161
5.97031
5.97305
5.97046
5.96316
5.95175
5.93676
5.91861
5.89763
5.87399
2.29302
2.25951
2.23448
2.21735
2.20754
2.20452
2.20784
2.2171
2.232
2.25228
2.27775
2.30827
2.34373
2.38408
2.42927
2.47929
2.53411
2.59374
2.65819
2.72745
2.80153
2.8804
2.96404
3.05241
3.14543
3.24301
3.34501
3.45126
3.56154
3.67559
3.79308
3.91363
4.03679
4.16202
4.28873
4.41625
4.54385
4.67073
4.79605
4.91891
5.03843
5.15368
5.26377
5.36786
5.46516
5.55497
5.63674
5.71
5.77446
5.83
5.87662
5.91451
5.94399
5.96551
5.97963
5.98696
5.98818
5.98399
5.97508
5.96209
5.94561
5.92615
5.90408
5.87967
2.2458
2.21086
2.18469
2.16669
2.15624
2.15277
2.15579
2.16487
2.17967
2.19992
2.22541
2.25599
2.29154
2.33201
2.37735
2.42754
2.48258
2.54248
2.60726
2.67694
2.75151
2.831
2.91537
3.00462
3.09868
3.19749
3.30091
3.40881
3.52099
3.63719
3.75709
3.88034
4.00647
4.13495
4.26514
4.39635
4.52781
4.65869
4.78809
4.91507
5.03866
5.15788
5.27176
5.37937
5.47988
5.57251
5.65663
5.73176
5.79758
5.85394
5.90088
5.93861
5.96748
5.98801
6.00082
6.00661
6.00613
6.00016
5.98946
5.97474
5.95668
5.93586
5.91273
5.88762
2.18924
2.15299
2.12577
2.10696
2.09591
2.09203
2.09476
2.10366
2.11836
2.13858
2.16408
2.19472
2.23037
2.27096
2.31647
2.36687
2.42218
2.48241
2.5476
2.61776
2.69293
2.77314
2.85838
2.94865
3.04392
3.14413
3.2492
3.35898
3.47331
3.59195
3.7146
3.8409
3.9704
4.10256
4.23671
4.37213
4.50801
4.64347
4.77756
4.90929
5.0376
5.16144
5.27974
5.39151
5.4958
5.59177
5.67872
5.75612
5.82361
5.88102
5.92842
5.96602
5.99426
6.01371
6.02507
6.02913
6.02675
6.01878
6.00608
5.98948
5.9697
5.94742
5.92319
5.89739
2.12307
2.08558
2.05739
2.03783
2.02622
2.02193
2.02439
2.03311
2.04772
2.0679
2.09342
2.12411
2.15986
2.20059
2.24628
2.29692
2.35253
2.41313
2.47877
2.54949
2.62533
2.70634
2.79254
2.88395
2.98056
3.08234
3.18922
3.30109
3.41779
3.53912
3.66479
3.79447
3.92771
4.06396
4.20254
4.34266
4.4835
4.62412
4.76354
4.90067
5.03438
5.16353
5.28697
5.40357
5.5123
5.61223
5.70256
5.7827
5.85224
5.911
5.95903
5.99661
6.02421
6.04249
6.05225
6.05439
6.04987
6.03967
6.02475
6.00603
5.98436
5.96048
5.93503
5.90849
2.04702
2.00837
1.97924
1.95896
1.94683
1.94215
1.94434
1.9529
1.9674
1.98754
2.01307
2.04381
2.07966
2.12053
2.16641
2.2173
2.27322
2.33421
2.40033
2.47164
2.5482
2.63007
2.7173
2.80993
2.90797
3.01142
3.12023
3.23433
3.35359
3.47781
3.60674
3.74005
3.87734
4.01805
4.16146
4.30676
4.45308
4.59946
4.74483
4.88804
5.02788
5.1631
5.29243
5.41464
5.52858
5.63318
5.72755
5.81101
5.88309
5.94357
5.9925
6.03019
6.05718
6.07423
6.08224
6.08225
6.07535
6.06265
6.04523
6.02414
6.00032
5.97463
5.94779
5.92037
1.96084
1.92106
1.89104
1.87007
1.85742
1.85237
1.8543
1.86268
1.87708
1.89717
1.92269
1.95348
1.9894
2.03041
2.07647
2.1276
2.18382
2.24521
2.31181
2.38372
2.461
2.54375
2.63203
2.72591
2.82542
2.93059
3.04141
3.15782
3.27972
3.40696
3.53931
3.67646
3.81802
3.9635
4.1121
4.263
4.4153
4.56798
4.71992
4.86991
5.01663
5.15873
5.29482
5.42352
5.54352
5.65365
5.75287
5.84038
5.91561
5.97831
6.02852
6.06656
6.09304
6.10883
6.11496
6.11262
6.10306
6.08754
6.06729
6.0435
6.01723
5.98943
5.96095
5.93243
1.86428
1.8234
1.7925
1.77086
1.7577
1.75228
1.75394
1.76214
1.77642
1.79645
1.82195
1.85275
1.88874
1.92984
1.97606
2.02739
2.0839
2.14564
2.21269
2.28517
2.36315
2.44674
2.53604
2.63114
2.7321
2.83897
2.95178
3.07051
3.19508
3.32538
3.4612
3.60229
3.74827
3.89869
4.05277
4.20961
4.3683
4.52779
4.68691
4.84437
4.99877
5.14861
5.29239
5.42856
5.55567
5.67234
5.77739
5.86985
5.94906
6.01467
6.06667
6.10542
6.13159
6.14616
6.15032
6.14541
6.13288
6.11418
6.09072
6.06382
6.0347
6.00443
5.97396
5.94404
1.75709
1.71512
1.68336
1.66105
1.64738
1.64158
1.64297
1.65097
1.66511
1.68504
1.71049
1.74128
1.77728
1.81844
1.86476
1.91625
1.97297
2.035
2.10244
2.1754
2.254
2.33835
2.42858
2.52479
2.6271
2.73558
2.85028
2.97122
3.09837
3.23165
3.3709
3.51589
3.6663
3.82171
3.98141
4.14444
4.30985
4.47658
4.64342
4.80901
4.97186
5.13036
5.28285
5.42763
5.56301
5.68745
5.79953
5.89812
5.98236
6.05179
6.10635
6.14636
6.17257
6.18606
6.1882
6.18053
6.16472
6.14243
6.11529
6.0848
6.05234
6.01913
5.98623
5.95452
1.63902
1.59597
1.56334
1.54036
1.52618
1.51999
1.52109
1.52886
1.54283
1.56263
1.58798
1.6187
1.65466
1.69582
1.74216
1.79372
1.85056
1.91278
1.98049
2.05381
2.13288
2.21783
2.30882
2.40598
2.50945
2.61933
2.73571
2.85865
2.98816
3.1242
3.26667
3.41538
3.57005
3.73032
3.89562
4.0649
4.2372
4.41146
4.58645
4.76077
4.93283
5.10092
5.26322
5.41784
5.56287
5.69652
5.81713
5.9233
6.01396
6.08847
6.14663
6.18874
6.21556
6.22829
6.22848
6.21791
6.1985
6.17218
6.14082
6.10616
6.06977
6.03303
5.99714
5.96311
1.50983
1.46569
1.4322
1.40853
1.39382
1.38722
1.38799
1.39551
1.40927
1.42889
1.45409
1.48467
1.52051
1.56157
1.60783
1.65935
1.71618
1.77844
1.84625
1.91974
1.99908
2.08441
2.17591
2.27375
2.37807
2.48903
2.60674
2.73132
2.86281
3.00123
3.14652
3.29856
3.45713
3.62193
3.79252
3.9679
4.14705
4.32894
4.51235
4.69584
4.87779
5.05638
5.22962
5.39543
5.55168
5.69625
5.82719
5.94279
6.04167
6.12293
6.18617
6.23157
6.25991
6.27246
6.27095
6.25743
6.23413
6.20331
6.16713
6.12762
6.08658
6.04559
6.00602
5.96903
1.36927
1.32403
1.28966
1.2653
1.25004
1.243
1.24341
1.25063
1.26413
1.28351
1.30848
1.33883
1.37446
1.4153
1.46136
1.51267
1.56933
1.63143
1.69912
1.77254
1.85187
1.93727
2.02894
2.12707
2.23183
2.34341
2.46197
2.58765
2.72056
2.86075
3.00824
3.16298
3.32482
3.49353
3.66877
3.84981
4.03547
4.22481
4.41663
4.60955
4.8019
4.99179
5.1771
5.35555
5.52473
5.68222
5.82568
5.95299
6.0624
6.15261
6.22294
6.27337
6.30458
6.3179
6.31524
6.29892
6.27153
6.23573
6.19407
6.14891
6.10237
6.05627
6.01217
5.97143
1.21711
1.17076
1.13549
1.11041
1.09456
1.08705
1.08707
1.09394
1.10711
1.12618
1.15083
1.18086
1.21614
1.25663
1.30231
1.35325
1.40951
1.47122
1.53851
1.61155
1.69051
1.77559
1.86698
1.9649
2.06955
2.18115
2.29988
2.42593
2.55946
2.70059
2.84939
3.00589
3.17004
3.3417
3.52063
3.70643
3.89788
4.09408
4.29398
4.49624
4.69923
4.90105
5.09946
5.29201
5.476
5.64865
5.80719
5.94902
6.07185
6.1739
6.25403
6.3119
6.34797
6.36356
6.36071
6.34203
6.31053
6.26932
6.22147
6.16977
6.11672
6.06447
6.01483
5.96937
1.0531
1.00563
0.969431
0.943599
0.927143
0.91912
0.91869
0.925148
0.937928
0.956594
0.980827
1.01041
1.04522
1.08518
1.13031
1.18063
1.23625
1.29726
1.36383
1.4361
1.51426
1.59852
1.68908
1.78617
1.89001
2.00084
2.11889
2.24436
2.37747
2.51841
2.66731
2.8243
2.98942
3.16266
3.34391
3.53296
3.729
3.93101
4.13813
4.34919
4.56269
4.77674
4.98908
5.19709
5.39783
5.58814
5.76473
5.92442
6.06426
6.18182
6.27532
6.3439
6.38767
6.40777
6.4063
6.38616
6.3508
6.30391
6.24915
6.18992
6.12921
6.06958
6.01319
5.96187
0.877027
0.828393
0.791245
0.76463
0.747524
0.738943
0.738013
0.743999
0.756306
0.774479
0.798184
0.82719
0.861357
0.900616
0.944959
0.994426
1.0491
1.10908
1.17452
1.24557
1.32242
1.40527
1.49433
1.58983
1.692
1.80111
1.91738
2.04108
2.17246
2.31175
2.45919
2.61497
2.77928
2.95224
3.1339
3.32423
3.52296
3.72906
3.94193
4.16066
4.38395
4.61007
4.83681
5.06146
5.28085
5.49142
5.68938
5.87082
6.03202
6.16965
6.28112
6.36478
6.42013
6.44797
6.45032
6.43028
6.39178
6.33918
6.27689
6.20907
6.13939
6.07097
6.00639
5.94782
0.688644
0.638823
0.600687
0.573254
0.555456
0.54627
0.544785
0.55023
0.561984
0.579566
0.602622
0.630905
0.664262
0.702611
0.745932
0.794255
0.847648
0.906212
0.970075
1.03939
1.11433
1.19508
1.28185
1.37486
1.47436
1.58057
1.69378
1.81425
1.94226
2.07811
2.22211
2.37456
2.53577
2.70603
2.8856
3.07468
3.27336
3.4811
3.69745
3.92193
4.15358
4.39095
4.632
4.87405
5.11377
5.34726
5.57014
5.77773
5.96536
6.12864
6.26383
6.3682
6.44037
6.48045
6.49018
6.47274
6.43251
6.37459
6.30433
6.22687
6.14678
6.06793
5.99349
5.92606
0.487727
0.436681
0.39752
0.369226
0.350693
0.340854
0.338757
0.343595
0.354714
0.371605
0.39389
0.421302
0.453669
0.490891
0.532931
0.579803
0.631557
0.688276
0.750069
0.817066
0.889419
0.967295
1.05088
1.14037
1.236
1.33798
1.44658
1.56208
1.68479
1.81503
1.95319
2.09968
2.25495
2.41948
2.59377
2.77831
2.97352
3.17954
3.39617
3.62352
3.86117
4.10811
4.36263
4.62223
4.88355
5.14239
5.39383
5.63236
5.85221
6.04768
6.21359
6.34579
6.44156
6.49997
6.52211
6.51102
6.47142
6.40924
6.33093
6.24286
6.15083
6.05971
5.97347
5.89529
0.274053
0.221734
0.181502
0.152305
0.132993
0.122454
0.119692
0.123859
0.134265
0.15037
0.171765
0.198159
0.229354
0.265228
0.305721
0.350821
0.400553
0.454972
0.514157
0.578206
0.647235
0.721374
0.800771
0.885586
0.976
1.07221
1.17445
1.28299
1.39812
1.52021
1.6497
1.7871
1.93301
2.08813
2.25323
2.42914
2.6167
2.81663
3.0293
3.25556
3.49573
3.74948
4.01564
4.29207
4.57555
4.86174
5.14522
5.41964
5.67802
5.91314
6.11807
6.28677
6.4147
6.49939
6.5408
6.54144
6.50619
6.44175
6.35586
6.25647
6.15092
6.0455
5.94526
5.85411
0.0473942
-0.00625376
-0.0476081
-0.077756
-0.0978914
-0.109173
-0.112646
-0.109203
-0.0995758
-0.0843424
-0.0639443
-0.0387058
-0.00885539
0.0254556
0.0641356
0.107139
0.154457
0.206105
0.262119
0.322552
0.387468
0.456944
0.531066
0.609935
0.693668
0.782404
0.876318
0.975627
1.08062
1.19165
1.3092
1.43388
1.56644
1.70781
1.85907
2.02145
2.19628
2.3849
2.58835
2.80827
3.04621
3.30273
3.57745
3.86885
4.17408
4.48883
4.80734
5.12248
5.42598
5.70894
5.96233
6.17778
6.34837
6.46941
6.53911
6.5589
6.53343
6.47006
6.37794
6.26692
6.14637
6.02446
5.9077
5.80106
-0.192476
-0.247523
-0.29006
-0.321209
-0.342208
-0.354269
-0.358487
-0.355807
-0.347007
-0.332709
-0.313395
-0.289429
-0.261076
-0.228525
-0.191909
-0.151314
-0.106797
-0.0583912
-0.00611754
0.0500144
0.110001
0.173842
0.241542
0.313116
0.388587
0.468005
0.551453
0.639074
0.731091
0.827841
0.929814
1.03769
1.15237
1.27502
1.40706
1.55019
1.7063
1.8774
2.06542
2.27256
2.50215
2.75597
3.03474
3.33785
3.6631
4.00651
4.36218
4.7223
5.07742
5.41677
5.72898
6.00288
6.22853
6.39827
6.50774
6.55652
6.54846
6.49124
6.39546
6.27318
6.13638
5.99568
5.85963
5.73456
-0.445793
-0.502326
-0.546116
-0.578318
-0.600217
-0.61308
-0.618061
-0.616159
-0.608209
-0.594882
-0.576708
-0.554097
-0.527361
-0.496736
-0.462403
-0.424501
-0.383145
-0.338433
-0.290455
-0.239302
-0.185066
-0.127844
-0.0677383
-0.00485363
0.0607123
0.12888
0.199606
0.272915
0.348931
0.427923
0.51036
0.596968
0.688785
0.78721
0.894038
1.01146
1.14201
1.28853
1.45392
1.64092
1.85453
2.09865
2.37535
2.68528
3.02725
3.39792
3.79154
4.19993
4.61251
5.0167
5.39858
5.74375
6.03861
6.2717
6.43506
6.52547
6.54507
6.50132
6.40609
6.27394
6.12005
5.95828
5.79987
5.65305
-0.712804
-0.770931
-0.816057
-0.849365
-0.872194
-0.885867
-0.891603
-0.890466
-0.88335
-0.870987
-0.853964
-0.832746
-0.807698
-0.779114
-0.747233
-0.712261
-0.67438
-0.633768
-0.590602
-0.545069
-0.497371
-0.447728
-0.396377
-0.343571
-0.289566
-0.234608
-0.17891
-0.122611
-0.0657347
-0.00812395
0.0506271
0.111253
0.174901
0.243198
0.318313
0.402972
0.50044
0.614432
0.748933
0.907864
1.09666
1.32255
1.58941
1.89951
2.25304
2.6477
3.07835
3.53672
4.01141
4.48817
4.95043
5.38029
5.75988
6.07303
6.3071
6.45477
6.51533
6.49509
6.40676
6.26754
6.09643
5.91142
5.72736
5.55505
-0.99378
-1.05364
-1.10019
-1.13466
-1.15844
-1.17291
-1.17936
-1.17893
-1.17259
-1.16113
-1.14521
-1.12536
-1.102
-1.07551
-1.04618
-1.0143
-0.980137
-0.943959
-0.906048
-0.866707
-0.826268
-0.785097
-0.743597
-0.702198
-0.661354
-0.621518
-0.583118
-0.546505
-0.5119
-0.479311
-0.448447
-0.418607
-0.388575
-0.356516
-0.319893
-0.275419
-0.219061
-0.14612
-0.0513959
0.0705213
0.225181
0.42287
0.670491
0.972264
1.3302
1.74351
2.20808
2.71605
3.25565
3.81122
4.3637
4.89153
5.37209
5.78366
6.1077
6.33135
6.44949
6.46599
6.39359
6.25196
6.06452
5.85441
5.64125
5.43924
-1.28902
-1.35077
-1.39887
-1.43457
-1.4593
-1.47452
-1.48161
-1.48178
-1.47609
-1.4654
-1.45045
-1.43186
-1.41011
-1.38566
-1.3589
-1.33018
-1.29988
-1.26837
-1.23606
-1.20337
-1.1708
-1.13888
-1.10821
-1.07942
-1.05321
-1.03028
-1.0113
-0.996912
-0.98757
-0.983508
-0.984602
-0.990243
-0.99919
-1.00944
-1.01811
-1.02134
-1.01431
-0.99128
-0.945738
-0.87074
-0.759362
-0.60088
-0.383322
-0.100076
0.253104
0.677416
1.17033
1.725
2.32978
2.96815
3.6189
4.2569
4.85453
5.38378
5.81904
6.14025
6.33606
6.40611
6.36182
6.22485
6.02338
5.78687
5.54106
5.30471
-1.59888
-1.66273
-1.71251
-1.74948
-1.77515
-1.79106
-1.79865
-1.79925
-1.794
-1.78387
-1.76968
-1.75213
-1.73181
-1.70925
-1.68493
-1.65932
-1.6329
-1.60616
-1.57964
-1.55393
-1.52968
-1.50763
-1.48858
-1.47342
-1.46311
-1.45863
-1.46097
-1.47107
-1.48969
-1.51735
-1.55415
-1.59963
-1.65258
-1.71089
-1.77134
-1.82957
-1.87993
-1.9156
-1.92872
-1.91065
-1.85251
-1.74394
-1.56843
-1.3154
-0.978021
-0.552614
-0.0395519
0.555944
1.22312
1.94527
2.69961
3.45786
4.18741
4.85352
5.42241
5.86518
6.16207
6.30625
6.30588
6.18354
5.97224
5.70885
5.42689
5.15114
-1.92376
-1.98996
-2.04158
-2.0799
-2.10647
-2.12293
-2.13084
-2.13161
-2.12651
-2.11661
-2.10284
-2.086
-2.06678
-2.04582
-2.02369
-2.00099
-1.97831
-1.95628
-1.93558
-1.91698
-1.9013
-1.88951
-1.88265
-1.88188
-1.88844
-1.90364
-1.92883
-1.96529
-2.01414
-2.07623
-2.15195
-2.24105
-2.34242
-2.45389
-2.572
-2.69188
-2.80712
-2.90983
-2.99073
-3.03946
-3.04505
-2.9962
-2.87514
-2.66507
-2.35608
-1.94157
-1.41918
-0.791786
-0.0684705
0.734735
1.59439
2.47973
3.3536
4.17441
4.89941
5.48929
5.91358
6.15623
6.21958
6.12527
5.91072
5.62116
5.29974
4.97912
-2.26416
-2.33303
-2.38667
-2.42639
-2.45381
-2.47065
-2.47859
-2.47919
-2.47382
-2.4637
-2.44988
-2.43327
-2.41467
-2.39485
-2.3745
-2.35433
-2.33506
-2.31748
-2.30242
-2.29082
-2.28374
-2.28235
-2.28794
-2.30198
-2.32602
-2.36174
-2.41084
-2.475
-2.55576
-2.65432
-2.77145
-2.90715
-3.06048
-3.22928
-3.40992
-3.59711
-3.78373
-3.96086
-4.11784
-4.24256
-4.32194
-4.3426
-4.28718
-4.13343
-3.86653
-3.4766
-2.95805
-2.31074
-1.54119
-0.663743
0.298572
1.3136
2.34046
3.33107
4.23339
4.99634
5.57647
5.94541
6.09636
6.04738
5.83905
5.5256
5.16185
4.79054
-2.62069
-2.69261
-2.7485
-2.78968
-2.81784
-2.83482
-2.84243
-2.84237
-2.8362
-2.82525
-2.81074
-2.79369
-2.77507
-2.75574
-2.73654
-2.71831
-2.70192
-2.6883
-2.67846
-2.67353
-2.67477
-2.68359
-2.70158
-2.73047
-2.77218
-2.82874
-2.90227
-2.99486
-3.10847
-3.24476
-3.40485
-3.5891
-3.79681
-4.0259
-4.27264
-4.53143
-4.79453
-5.05207
-5.29209
-5.50079
-5.663
-5.76287
-5.78259
-5.69808
-5.48734
-5.1368
-4.63714
-3.98457
-3.18221
-2.24161
-1.18411
-0.0418781
1.14175
2.31315
3.41115
4.37213
5.13755
5.66342
5.92987
5.94772
5.75849
5.42549
5.01717
4.58908
-2.99409
-3.06954
-3.12795
-3.17064
-3.1994
-3.21618
-3.22297
-3.22166
-3.21396
-3.20141
-3.18536
-3.16703
-3.14751
-3.12781
-3.10892
-3.09182
-3.07752
-3.06712
-3.06181
-3.06291
-3.07189
-3.09042
-3.12034
-3.16372
-3.2228
-3.29999
-3.39783
-3.51885
-3.66547
-3.83979
-4.04337
-4.27695
-4.54012
-4.83098
-5.14583
-5.4788
-5.8217
-6.16384
-6.49208
-6.79104
-7.04354
-7.23126
-7.33488
-7.3301
-7.18948
-6.89354
-6.42902
-5.78796
-4.9693
-3.9807
-2.84044
-1.57907
-0.240673
1.11707
2.42479
3.60614
4.58586
5.30117
5.71465
5.82517
5.67183
5.32608
4.87194
4.3808
-3.38532
-3.46486
-3.52609
-3.57035
-3.5995
-3.61566
-3.62101
-3.61765
-3.60752
-3.59236
-3.57373
-3.55303
-3.5315
-3.51033
-3.49066
-3.47361
-3.46037
-3.45219
-3.45043
-3.45661
-3.47243
-3.49978
-3.54078
-3.59781
-3.67344
-3.77048
-3.89186
-4.04055
-4.21944
-4.43109
-4.67753
-4.95992
-5.27819
-5.63071
-6.01386
-6.42169
-6.84566
-7.27444
-7.69388
-8.08722
-8.43544
-8.71791
-8.91314
-8.99619
-8.93813
-8.7115
-8.29871
-7.6872
-6.87108
-5.85314
-4.64718
-3.28037
-1.7955
-0.252255
1.27347
2.69326
3.9143
4.85212
5.44705
5.6804
5.58397
5.23532
4.73537
4.17485
-3.79553
-3.87987
-3.9443
-3.99017
-4.01943
-4.0344
-4.03751
-4.03111
-4.0174
-3.9984
-3.97587
-3.95143
-3.92653
-3.90252
-3.8807
-3.86237
-3.84887
-3.8416
-3.84212
-3.85213
-3.87352
-3.90844
-3.95926
-4.02864
-4.11951
-4.235
-4.37846
-4.55329
-4.76283
-5.0101
-5.2976
-5.62693
-5.99844
-6.41079
-6.86057
-7.34187
-7.84595
-8.36103
-8.87219
-9.36152
-9.80841
-10.1902
-10.4829
-10.6606
-10.6939
-10.5502
-10.2051
-9.6415
-8.84812
-7.82206
-6.57134
-5.118
-3.50126
-1.78026
-0.035058
1.63554
3.12122
4.3137
5.12643
5.51672
5.50278
5.16457
4.62049
3.98434
-4.2262
-4.31619
-4.38427
-4.43176
-4.46076
-4.47383
-4.47367
-4.46298
-4.44429
-4.41989
-4.39186
-4.36203
-4.33208
-4.30356
-4.27795
-4.25671
-4.24133
-4.23339
-4.23461
-4.24686
-4.27224
-4.31311
-4.37208
-4.45208
-4.55634
-4.68834
-4.85178
-5.05047
-5.28816
-5.56835
-5.89398
-6.2671
-6.68849
-7.15718
-7.67004
-8.22131
-8.80225
-9.40084
-10.0016
-10.5858
-11.1316
-11.6144
-12.0083
-12.2854
-12.4158
-12.3661
-12.1031
-11.6049
-10.8546
-9.84301
-8.57125
-7.05453
-5.32622
-3.44206
-1.48325
0.44365
2.21209
3.6889
4.75647
5.34126
5.44005
5.1296
4.54517
3.82736
-4.67919
-4.77588
-4.84812
-4.89722
-4.92546
-4.93568
-4.93098
-4.91445
-4.88902
-4.85735
-4.82185
-4.78464
-4.74766
-4.71265
-4.68128
-4.65519
-4.63604
-4.62554
-4.62558
-4.63819
-4.66565
-4.7105
-4.77558
-4.86405
-4.97941
-5.12543
-5.30616
-5.52575
-5.78835
-6.09785
-6.45764
-6.87021
-7.33676
-7.85673
-8.42736
-9.04315
-9.6955
-10.3724
-11.058
-11.7332
-12.375
-12.9578
-13.4535
-13.8327
-14.0641
-14.1144
-13.9458
-13.5287
-12.8407
-11.8661
-10.5983
-9.04418
-7.22913
-5.20255
-3.04319
-0.861918
1.20103
2.98785
4.34671
5.16623
5.41264
5.15176
4.5333
3.72824
-5.15683
-5.26151
-5.33851
-5.38917
-5.41598
-5.42215
-5.41129
-5.38698
-5.35265
-5.31143
-5.26611
-5.21915
-5.17276
-5.12894
-5.08954
-5.05638
-5.03125
-5.01604
-5.01274
-5.02354
-5.05087
-5.09743
-5.16625
-5.26068
-5.38445
-5.5416
-5.73641
-5.97338
-6.25696
-6.59144
-6.98055
-7.42721
-7.93303
-8.49789
-9.11942
-9.79251
-10.5088
-11.2565
-12.0199
-12.7794
-13.5118
-14.1903
-14.7855
-15.2662
-15.6
-15.753
-15.6871
-15.3637
-14.755
-13.8384
-12.5991
-11.0348
-9.16071
-7.01712
-4.67664
-2.25019
0.112052
2.22944
3.91411
5.01043
5.44391
5.25935
4.61625
3.71895
-5.66208
-5.77632
-5.8588
-5.91088
-5.93535
-5.93593
-5.91684
-5.88234
-5.83648
-5.78294
-5.72499
-5.66548
-5.60694
-5.55162
-5.50159
-5.45882
-5.42525
-5.40288
-5.39384
-5.40042
-5.42517
-5.47092
-5.54084
-5.63845
-5.76765
-5.93265
-6.13799
-6.38837
-6.68854
-7.04305
-7.45599
-7.93061
-8.46893
-9.07122
-9.73557
-10.4573
-11.2285
-12.0377
-12.8695
-13.7043
-14.5188
-15.2859
-15.9752
-16.5541
-16.9888
-17.2446
-17.284
-17.0636
-16.5476
-15.707
-14.5187
-12.9703
-11.0657
-8.8332
-6.33572
-3.67957
-1.02009
1.44267
3.48477
4.90095
5.56533
5.48926
4.83459
3.84093
-6.19869
-6.32444
-6.41324
-6.46648
-6.48737
-6.48034
-6.45042
-6.40273
-6.3421
-6.2729
-6.19897
-6.12363
-6.04976
-5.97988
-5.91627
-5.86106
-5.81632
-5.78414
-5.76673
-5.76648
-5.78601
-5.82825
-5.89646
-5.99427
-6.12568
-6.29508
-6.50713
-6.76671
-7.07876
-7.44804
-7.87889
-8.37485
-8.93828
-9.56984
-10.2681
-11.0287
-11.8445
-12.7044
-13.5935
-14.4927
-15.3788
-16.2246
-16.9995
-17.6701
-18.2011
-18.557
-18.7
-18.5867
-18.1724
-17.4215
-16.3029
-14.7936
-12.8852
-10.5922
-7.96423
-5.0983
-2.14937
0.66797
3.09565
4.87506
5.81837
5.88893
5.24017
4.14717
-6.77146
-6.91115
-7.0072
-7.06114
-7.07677
-7.05948
-7.0154
-6.95074
-6.87136
-6.78247
-6.6886
-6.5936
-6.50076
-6.41287
-6.33242
-6.26168
-6.2028
-6.15796
-6.1294
-6.11957
-6.13113
-6.16704
-6.23062
-6.32555
-6.45592
-6.62616
-6.84103
-7.1055
-7.4246
-7.80326
-8.24597
-8.75651
-9.33751
-9.99001
-10.7129
-11.5025
-12.352
-13.2509
-14.1851
-15.1361
-16.0812
-16.9936
-17.8431
-18.5956
-19.2152
-19.6651
-19.9069
-19.8985
-19.5896
-18.9368
-17.901
-16.4491
-14.5596
-12.2319
-9.49934
-6.44531
-3.2185
-0.0418887
2.79625
4.98233
6.25681
6.51876
5.89867
4.70482
-7.38655
-7.54321
-7.64759
-7.70145
-7.70949
-7.67841
-7.61586
-7.52949
-7.42644
-7.313
-7.19451
-7.07543
-6.95946
-6.84971
-6.74884
-6.65921
-6.58306
-6.52256
-6.47999
-6.45776
-6.45853
-6.48528
-6.54132
-6.63033
-6.7564
-6.924
-7.13787
-7.40302
-7.72455
-8.10743
-8.5563
-9.07506
-9.66654
-10.332
-11.0707
-11.8794
-12.7518
-13.6781
-14.6448
-15.6342
-16.6245
-17.5897
-18.4999
-19.3218
-20.0187
-20.5532
-20.8856
-20.9739
-20.768
-20.215
-19.2685
-17.8853
-16.031
-13.6886
-10.8736
-7.65154
-4.15915
-0.620928
2.65039
5.28701
6.94946
7.45505
6.89277
5.59845
-8.05197
-8.22942
-8.3433
-8.39579
-8.39295
-8.34336
-8.25672
-8.14262
-8.00983
-7.86595
-7.7173
-7.56902
-7.42526
-7.28939
-7.16422
-7.05217
-6.95546
-6.87624
-6.81673
-6.7793
-6.76654
-6.78137
-6.82704
-6.90722
-7.02593
-7.18758
-7.39691
-7.65888
-7.97859
-8.36103
-8.81083
-9.33198
-9.9274
-10.5985
-11.3449
-12.1635
-13.0487
-13.9911
-14.9781
-15.9927
-17.0142
-18.0174
-18.9735
-19.8498
-20.61
-21.216
-21.6271
-21.8
-21.6864
-21.2273
-20.3685
-19.0569
-17.2451
-14.8999
-12.017
-8.6413
-4.89246
-0.989335
2.73804
5.87084
7.98352
8.79371
8.3262
6.93422
-8.77825
-8.98137
-9.10592
-9.15493
-9.1365
-9.06196
-8.94384
-8.79429
-8.6242
-8.44277
-8.25743
-8.07407
-7.89728
-7.73064
-7.57703
-7.43886
-7.31825
-7.21726
-7.13797
-7.08262
-7.05371
-7.05403
-7.08675
-7.15541
-7.26397
-7.41673
-7.61834
-7.87371
-8.18785
-8.5657
-9.01186
-9.53027
-10.1239
-10.7943
-11.541
-12.3615
-13.2503
-14.1988
-15.1948
-16.2224
-17.2615
-18.2883
-19.2749
-20.1895
-20.9969
-21.6585
-22.133
-22.3755
-22.3369
-21.9575
-21.174
-19.926
-18.1533
-15.8056
-12.8583
-9.33363
-5.32965
-1.05289
3.15727
6.83626
9.46875
10.6551
10.329
8.84528
-9.57945
-9.81447
-9.95073
-9.99277
-9.95193
-9.84354
-9.68407
-9.48913
-9.27229
-9.04466
-8.81495
-8.5898
-8.37416
-8.17174
-7.98537
-7.8173
-7.66948
-7.54374
-7.44197
-7.3662
-7.31875
-7.30225
-7.31972
-7.37455
-7.47055
-7.61189
-7.8031
-8.04899
-8.35443
-8.72424
-9.16293
-9.67435
-10.2614
-10.9256
-11.6668
-12.4823
-13.3671
-14.3129
-15.3082
-16.3377
-17.3822
-18.419
-19.4211
-20.3579
-21.1951
-21.8945
-22.414
-22.7074
-22.7232
-22.4022
-21.6728
-20.4662
-18.7134
-16.3495
-13.3269
-9.64345
-5.37257
-0.702441
4.02633
8.31024
11.5428
13.1903
13.0647
11.4993
-10.4747
-10.7497
-10.8982
-10.9275
-10.8541
-10.6994
-10.4852
-10.232
-9.95653
-9.67223
-9.38914
-9.11458
-8.85371
-8.61019
-8.3866
-8.18489
-8.00667
-7.85342
-7.72673
-7.62834
-7.56032
-7.52508
-7.52542
-7.56453
-7.64604
-7.77397
-7.9527
-8.18686
-8.48117
-8.84031
-9.26859
-9.76976
-10.3466
-11.0005
-11.7313
-12.5364
-13.411
-14.3472
-15.3336
-16.3558
-17.3952
-18.4299
-19.4337
-20.3771
-21.2265
-21.9446
-22.4887
-22.8109
-22.8572
-22.5662
-21.8625
-20.6663
-18.8982
-16.4815
-13.3533
-9.4826
-4.91437
0.186388
5.48561
10.4486
14.378
16.5899
16.7403
15.1088
-11.4908
-11.8161
-11.976
-11.983
-11.8618
-11.6428
-11.356
-11.0275
-10.6785
-10.3248
-9.97782
-9.64529
-9.33232
-9.04217
-8.77693
-8.53801
-8.32646
-8.1433
-7.98964
-7.86687
-7.77671
-7.7213
-7.70314
-7.7252
-7.79089
-7.90405
-8.06889
-8.28982
-8.5714
-8.91809
-9.33401
-9.8227
-10.3868
-11.0275
-11.7445
-12.5355
-13.3953
-14.3164
-15.2878
-16.2952
-17.3208
-18.3429
-19.3363
-20.2719
-21.1168
-21.834
-22.3808
-22.7072
-22.7562
-22.4623
-21.7479
-20.5214
-18.692
-16.1693
-12.8746
-8.761
-3.84059
1.75285
7.69902
13.4401
18.1894
21.0959
21.6209
19.9476
-12.6658
-13.0548
-13.2224
-13.1908
-12.9985
-12.6894
-12.3048
-11.8789
-11.4375
-10.9992
-10.5763
-10.1764
-9.80406
-9.46175
-9.15065
-8.8713
-8.62397
-8.40899
-8.2269
-8.07858
-7.96534
-7.88893
-7.85154
-7.85588
-7.90512
-8.0029
-8.15319
-8.36023
-8.62834
-8.96174
-9.36434
-9.83942
-10.3894
-11.0153
-11.7167
-12.4909
-13.333
-14.2354
-15.1871
-16.1742
-17.1789
-18.1801
-19.1526
-20.0676
-20.8923
-21.5895
-22.1167
-22.4211
-22.442
-22.1088
-21.3388
-20.0318
-18.0833
-15.3874
-11.8476
-7.39709
-2.03156
4.14897
10.8534
17.5098
23.2435
27.0174
28.0514
26.3755
-14.0566
-14.526
-14.6911
-14.5928
-14.2927
-13.8557
-13.3389
-12.7863
-12.2292
-11.6882
-11.1756
-10.6983
-10.2593
-9.85964
-9.499
-9.17667
-8.89184
-8.64393
-8.43271
-8.25847
-8.12199
-8.02454
-7.96798
-7.95471
-7.98768
-8.07028
-8.20626
-8.39962
-8.65444
-8.97469
-9.36402
-9.82544
-10.3611
-10.9717
-11.6567
-12.4131
-13.236
-14.1174
-15.0465
-16.0093
-16.988
-17.9613
-18.9042
-19.7874
-20.5776
-21.237
-21.7221
-21.9777
-21.9377
-21.525
-20.6494
-19.203
-17.0654
-14.1145
-10.2332
-5.33162
0.61862
7.53366
15.1536
22.9175
29.8664
34.7513
36.4893
34.8793
-15.7507
-16.3197
-16.4586
-16.2441
-15.7778
-15.157
-14.4601
-13.7429
-13.0415
-12.3769
-11.76
-11.1951
-10.6827
-10.2213
-9.80852
-9.44179
-9.11889
-8.83805
-8.59815
-8.39868
-8.23976
-8.1222
-8.04748
-8.0177
-8.03552
-8.1041
-8.22694
-8.40779
-8.65048
-8.95871
-9.33583
-9.78455
-10.3067
-10.9027
-11.5717
-12.3104
-13.1136
-13.9732
-14.878
-15.8139
-16.7627
-17.703
-18.6089
-19.4506
-20.1936