# vtk DataFile Version 2.0
Lid-driven cavity
ASCII
DATASET STRUCTURED_POINTS
DIMENSIONS 64 64 1
ORIGIN 0.0078125 0.0078125 0
SPACING 0.015625 0.015625 1
POINT_DATA 4096
SCALARS pressure double 1
LOOKUP_TABLE default
14.8575
14.8415
14.8049
14.7571
14.7062
14.6581
14.6167
14.5844
14.5625
14.5516
14.552
14.5636
14.5864
14.6204
14.6655
14.7219
14.7898
14.8693
14.9609
15.065
15.182
15.3122
15.4559
15.6134
15.7846
15.9695
16.1676
16.3784
16.6011
16.8343
17.0766
17.3261
17.5807
17.838
18.0951
18.3492
18.597
18.8352
19.0606
19.2699
19.4603
19.6291
19.7742
19.8938
19.987
20.0534
20.0934
20.1079
20.0987
20.0681
20.0188
19.9539
19.877
19.7916
19.7016
19.6106
19.5224
19.4404
19.3682
19.309
19.2655
19.2399
19.232
19.2379
14.8735
14.8573
14.8267
14.788
14.747
14.7083
14.675
14.6495
14.633
14.6263
14.6298
14.6438
14.6682
14.7032
14.7489
14.8053
14.8727
14.9515
15.0418
15.1441
15.2586
15.3858
15.5259
15.6789
15.845
16.0239
16.2152
16.4184
16.6326
16.8567
17.0891
17.3282
17.5719
17.8179
18.0636
18.3062
18.5428
18.7702
18.9854
19.1855
19.3677
19.5296
19.6691
19.7849
19.876
19.9421
19.9835
20.0013
19.997
19.9729
19.9314
19.8756
19.8087
19.7339
19.6548
19.5748
19.4971
19.4249
19.3613
19.3089
19.27
19.2461
19.2377
19.2437
14.9106
14.8876
14.8564
14.8211
14.7854
14.7527
14.7253
14.7051
14.6931
14.6902
14.6967
14.7128
14.7387
14.7746
14.8206
14.8768
14.9436
15.0211
15.1097
15.2098
15.3216
15.4455
15.5817
15.7303
15.8913
16.0645
16.2496
16.446
16.6529
16.8692
17.0934
17.324
17.559
17.7962
18.0332
18.2672
18.4955
18.715
18.9229
19.1163
19.2926
19.4495
19.5851
19.6981
19.7874
19.853
19.8951
19.9148
19.9136
19.8936
19.8573
19.8076
19.7475
19.6801
19.6086
19.5362
19.4659
19.4006
19.3428
19.2951
19.2592
19.2368
19.2289
19.2363
14.9599
14.9262
14.8903
14.8543
14.8205
14.7911
14.7676
14.7513
14.7429
14.743
14.752
14.77
14.7972
14.8337
14.8797
14.9354
15.0011
15.0771
15.1637
15.2612
15.3699
15.4902
15.6224
15.7664
15.9224
16.0902
16.2695
16.4598
16.6604
16.8701
17.0877
17.3115
17.5399
17.7705
18.0012
18.2292
18.4517
18.666
18.8691
19.0582
19.2308
19.3846
19.5178
19.6288
19.717
19.7821
19.8244
19.845
19.8454
19.8277
19.7944
19.7482
19.6922
19.6293
19.5626
19.495
19.4294
19.3683
19.3141
19.269
19.2347
19.2128
19.2047
19.2118
15.0132
14.9671
14.924
14.8847
14.8505
14.8223
14.801
14.7873
14.7816
14.7841
14.795
14.8144
14.8424
14.8792
14.9249
14.9797
15.044
15.118
15.202
15.2965
15.4018
15.5182
15.646
15.7854
15.9365
16.0991
16.273
16.4578
16.6528
16.857
17.0693
17.288
17.5115
17.7377
17.9642
18.1884
18.4077
18.6191
18.8197
19.0068
19.1778
19.3303
19.4624
19.5728
19.6605
19.7253
19.7677
19.7886
19.7896
19.7727
19.7406
19.6959
19.6416
19.5808
19.5164
19.4511
19.3877
19.3286
19.2759
19.2316
19.1974
19.1748
19.1652
19.17
15.0639
15.0049
14.9534
14.9093
14.873
14.8445
14.8242
14.812
14.808
14.8121
14.8243
14.8446
14.873
14.9096
14.9545
15.0079
15.0702
15.1417
15.2228
15.3138
15.4152
15.5273
15.6506
15.7851
15.9311
16.0886
16.2574
16.4371
16.6273
16.827
17.0351
17.2501
17.4703
17.6938
17.9181
18.1407
18.3589
18.5697
18.7701
18.9573
19.1287
19.2818
19.4145
19.5255
19.6137
19.679
19.7215
19.7425
19.7434
19.7264
19.6941
19.6493
19.5949
19.5341
19.4697
19.4045
19.3412
19.2819
19.2288
19.1837
19.148
19.1234
19.1111
19.1123
15.1067
15.0349
14.9745
14.9248
14.8853
14.8556
14.8351
14.8235
14.8204
14.8254
14.8383
14.8588
14.887
14.9228
14.9663
15.0179
15.0777
15.1461
15.2236
15.3107
15.4076
15.515
15.6333
15.7626
15.9034
16.0557
16.2195
16.3946
16.5804
16.7763
16.9811
17.1936
17.4121
17.6344
17.8583
18.0812
18.3003
18.5126
18.7151
18.9046
19.0785
19.2341
19.3693
19.4825
19.5725
19.6391
19.6825
19.7038
19.7044
19.6868
19.6533
19.6071
19.5511
19.4885
19.4223
19.3553
19.29
19.2287
19.1734
19.1257
19.0873
19.0594
19.0432
19.0399
15.1371
15.0529
14.9835
14.9278
14.8846
14.8529
14.8316
14.8198
14.8168
14.822
14.8348
14.855
14.8823
14.9167
14.9583
15.0072
15.0639
15.1287
15.202
15.2843
15.3763
15.4784
15.5911
15.7149
15.8502
15.9971
16.1559
16.3263
16.508
16.7006
16.9029
17.1138
17.3316
17.5542
17.7793
18.0043
18.2263
18.4422
18.6488
18.843
19.0216
19.182
19.3218
19.4391
19.5326
19.602
19.6473
19.6695
19.6702
19.6517
19.6167
19.5681
19.5094
19.4436
19.3739
19.3033
19.2343
19.1692
19.1099
19.0582
19.0155
18.9832
18.9623
18.9538
15.1513
15.0551
14.9769
14.9151
14.8679
14.8337
14.811
14.7985
14.795
14.7997
14.8118
14.8309
14.8566
14.8889
14.9278
14.9735
15.0262
15.0865
15.1549
15.2318
15.318
15.4141
15.5207
15.6383
15.7675
15.9086
16.062
16.2276
16.4054
16.5947
16.7949
17.0049
17.223
17.447
17.6747
17.9034
18.1301
18.3517
18.5647
18.7659
18.9518
19.1195
19.2663
19.3901
19.4893
19.5634
19.6122
19.6366
19.6382
19.6192
19.5825
19.5313
19.4689
19.3988
19.3243
19.2484
19.174
19.1034
19.0386
18.9813
18.9331
18.8952
18.8688
18.8547
15.1457
15.038
14.9514
14.8835
14.8322
14.7953
14.7708
14.7569
14.7524
14.7559
14.7667
14.7839
14.8074
14.8368
14.8722
14.9137
14.9617
15.0167
15.0792
15.1499
15.2294
15.3185
15.418
15.5286
15.6509
15.7856
15.933
16.0934
16.2667
16.4528
16.6509
16.8603
17.0792
17.3054
17.5368
17.7707
18.0039
18.2332
18.455
18.6656
18.8616
19.0395
19.1962
19.3294
19.4372
19.5185
19.573
19.6015
19.6054
19.587
19.5492
19.4952
19.4287
19.3535
19.2729
19.1905
19.1091
19.0314
18.9594
18.8951
18.8399
18.7954
18.7626
18.7426
15.1169
14.9984
14.9036
14.8299
14.7745
14.7346
14.708
14.6924
14.6863
14.688
14.6967
14.7114
14.7318
14.7575
14.7884
14.8249
14.8672
14.9159
14.9714
15.0347
15.1064
15.1875
15.2788
15.3812
15.4956
15.6227
15.7631
15.9173
16.0855
16.2676
16.4633
16.6719
16.8917
17.1207
17.3566
17.5968
17.8382
18.0772
18.3101
18.5331
18.7421
18.9335
19.1037
19.2499
19.3696
19.4615
19.5249
19.5602
19.5686
19.5524
19.5145
19.4584
19.3878
19.3069
19.2195
19.1292
19.0394
18.9529
18.8722
18.7992
18.7358
18.6835
18.6435
18.617
15.062
14.9331
14.8305
14.7512
14.6916
14.6488
14.6197
14.6021
14.5938
14.5932
14.5991
14.6105
14.6269
14.6479
14.6735
14.7039
14.7393
14.7804
14.8278
14.8824
14.9449
15.0165
15.0981
15.1908
15.2957
15.4137
15.5456
15.6923
15.854
16.0311
16.2234
16.4303
16.6508
16.8825
17.1234
17.3708
17.6216
17.8723
18.1188
18.357
18.5826
18.7913
18.9791
19.1424
19.2785
19.3853
19.4615
19.5072
19.5234
19.512
19.4759
19.4188
19.3448
19.2581
19.1631
19.064
18.9644
18.8677
18.7766
18.6934
18.6203
18.5589
18.5107
18.4772
14.9777
14.8389
14.7291
14.6443
14.5807
14.5348
14.5032
14.483
14.4721
14.4685
14.4709
14.4781
14.4896
14.5049
14.5241
14.5471
14.5744
14.6065
14.6442
14.6884
14.7401
14.8003
14.8703
14.9514
15.0448
15.1516
15.2731
15.4101
15.5635
15.7337
15.9209
16.1249
16.3449
16.5787
16.8244
17.0795
17.3409
17.6049
17.8675
18.124
18.3699
18.6002
18.8103
18.9961
19.1538
19.2807
19.375
19.436
19.4642
19.4612
19.4299
19.3739
19.2976
19.2057
19.103
18.9942
18.8836
18.7751
18.6719
18.5769
18.4924
18.4206
18.3632
18.3218
14.8612
14.7131
14.5963
14.5063
14.4389
14.3898
14.3553
14.3323
14.3182
14.3109
14.309
14.3112
14.3167
14.3252
14.3366
14.3509
14.3685
14.39
14.4162
14.4481
14.4867
14.5334
14.5895
14.6564
14.7356
14.8286
14.9368
15.0615
15.2038
15.3645
15.5442
15.743
15.9607
16.1952
16.445
16.7076
16.9802
17.259
17.5399
17.818
18.0881
18.3448
18.5828
18.797
18.9828
19.1365
19.2553
19.3378
19.3837
19.3942
19.3718
19.3202
19.2438
19.1479
19.0378
18.9189
18.7963
18.6745
18.5575
18.4488
18.3512
18.2673
18.1993
18.1491
14.7095
14.5527
14.4293
14.3344
14.2632
14.2108
14.1732
14.1469
14.1291
14.1174
14.1103
14.1064
14.1049
14.1053
14.1074
14.1114
14.1175
14.1265
14.1391
14.1563
14.1794
14.2097
14.2489
14.2985
14.3603
14.436
14.5274
14.6361
14.7637
14.9115
15.0803
15.2708
15.4832
15.7162
15.9683
16.2376
16.5213
16.816
17.1172
17.42
17.7185
18.0069
18.2789
18.5285
18.75
18.9384
19.0898
19.2016
19.2726
19.3033
19.2955
19.2528
19.1797
19.082
18.9655
18.8366
18.7012
18.5648
18.4324
18.3081
18.1955
18.0977
18.0174
17.957
14.52
14.355
14.2254
14.1259
14.0509
13.9951
13.9541
13.9241
13.9019
13.8851
13.8718
13.8607
13.8508
13.8417
13.8329
13.8247
13.8173
13.8114
13.8078
13.8076
13.8121
13.8228
13.8415
13.8699
13.9102
13.9643
14.0345
14.1228
14.2311
14.3613
14.5149
14.6929
14.8961
15.1241
15.3758
15.6499
15.944
16.2547
16.5779
16.9081
17.2393
17.5649
17.8777
18.1704
18.4363
18.6688
18.8625
19.0133
19.1188
19.1782
19.1927
19.1653
19.1005
19.0044
18.8836
18.7454
18.5969
18.4449
18.2952
18.1533
18.0235
17.9098
17.8154
17.7432
14.29
14.1174
13.9822
13.8782
13.7994
13.7401
13.6954
13.661
13.6337
13.6109
13.5904
13.5709
13.5512
13.5308
13.5093
13.4868
13.4635
13.4401
13.4174
13.3964
13.3787
13.3659
13.3598
13.3625
13.3763
13.4038
13.4473
13.5095
13.5929
13.6999
13.8325
13.9927
14.1816
14.4
14.6472
14.923
15.2255
15.5518
15.8976
16.2577
16.6256
16.9939
17.3546
17.6992
18.0192
18.3066
18.5541
18.7557
18.9072
19.0063
19.0529
19.0492
18.9996
18.9102
18.7885
18.6428
18.4815
18.3129
18.1445
17.9829
17.8336
17.7016
17.5909
17.505
14.0171
13.8376
13.697
13.5888
13.5063
13.4433
13.3944
13.3551
13.3219
13.292
13.2632
13.2338
13.2027
13.1692
13.1329
13.0937
13.0518
13.0079
12.9626
12.9172
12.8732
12.8322
12.7963
12.7679
12.7495
12.7441
12.7545
12.784
12.8356
12.9124
13.0174
13.153
13.3213
13.5239
13.7613
14.0344
14.3421
14.6821
15.0505
15.442
15.8499
16.2664
16.6822
17.0877
17.4727
17.8272
18.1416
18.4078
18.6191
18.7712
18.8624
18.8936
18.8684
18.793
18.6754
18.5252
18.3524
18.167
17.9784
17.7949
17.6237
17.4708
17.3413
17.2392
13.6991
13.5133
13.3679
13.2557
13.1694
13.1024
13.0488
13.004
12.964
12.926
12.8874
12.8467
12.8024
12.7538
12.7002
12.6417
12.5782
12.5102
12.4386
12.3645
12.2893
12.2149
12.1436
12.0779
12.0207
11.9752
11.9451
11.9341
11.9459
11.9845
12.0535
12.1565
12.2966
12.476
12.6966
12.961
13.2691
13.6196
14.009
14.4324
14.883
15.3523
15.8304
16.3061
16.7674
17.2021
17.5981
17.9446
18.232
18.4534
18.6046
18.6845
18.6958
18.6441
18.538
18.388
18.2061
18.0044
17.7946
17.5872
17.3914
17.2148
17.0636
16.9428
13.3339
13.1427
12.9929
12.8769
12.7867
12.7153
12.6566
12.6054
12.5578
12.5103
12.4607
12.4069
12.3474
12.2814
12.2081
12.1271
12.0387
11.9429
11.8407
11.7331
11.6215
11.508
11.3948
11.2847
11.1812
11.0878
11.0087
10.9482
10.911
10.902
10.9257
10.9868
11.0894
11.2371
11.4325
11.6803
11.9824
12.3385
12.7459
13.2002
13.6947
14.2206
14.7672
15.3219
15.871
16.3998
16.8935
17.3378
17.7199
18.0294
18.2589
18.4049
18.468
18.4528
18.368
18.2252
18.0382
17.8218
17.5904
17.3574
17.1342
16.9307
16.7546
16.612
12.92
12.7241
12.5704
12.4507
12.3567
12.2806
12.2161
12.1577
12.1012
12.0432
11.9808
11.9121
11.8354
11.7495
11.6536
11.5471
11.43
11.3024
11.1649
11.0186
10.8649
10.7057
10.5437
10.3817
10.2236
10.0734
9.93587
9.81617
9.71983
9.65263
9.62043
9.62899
9.68372
9.78945
9.95012
10.1718
10.4596
10.8145
11.235
11.7174
12.2553
12.8401
13.4602
14.1021
14.75
15.3869
15.9947
16.5556
17.0529
17.472
17.8015
18.0342
18.1679
18.2055
18.1551
18.0291
17.8434
17.6153
17.3628
17.1026
16.8494
16.6157
16.4111
16.2431
12.456
12.2563
12.0992
11.9761
11.8779
11.7968
11.7259
11.6595
11.593
11.5229
11.4462
11.3607
11.2644
11.1561
11.0346
10.8992
10.7496
10.5857
10.4081
10.2175
10.0155
9.80391
9.58549
9.36349
9.1419
8.92542
8.7194
8.52981
8.36318
8.2264
8.12658
8.07084
8.06605
8.1185
8.23361
8.41815
8.68162
9.02662
9.45322
9.95877
10.5377
11.1815
11.8784
12.6139
13.3704
14.1286
14.8671
15.5642
16.1987
16.751
17.2048
17.5482
17.7752
17.8857
17.8865
17.7903
17.6145
17.3798
17.1078
16.8196
16.534
16.2665
16.0294
15.8322
11.9409
11.7384
11.5785
11.452
11.3497
11.2631
11.185
11.1096
11.0321
10.9485
10.8557
10.7513
10.6332
10.4997
10.3496
10.1817
9.99557
9.79092
9.56796
9.32743
9.07065
8.79962
8.51705
8.22646
7.9322
7.63949
7.35439
7.08373
6.83509
6.61657
6.43667
6.30402
6.22708
6.21386
6.27149
6.40699
6.63411
6.95859
7.38222
7.90379
8.51885
9.21943
9.99393
10.8271
11.7002
12.5913
13.4761
14.3287
15.1228
15.8334
16.4383
16.9198
17.2663
17.474
17.5469
17.4971
17.3433
17.1093
16.8212
16.5051
16.1847
15.8798
15.6062
15.3751
11.3744
11.17
11.0078
10.8782
10.7716
10.679
10.5932
10.5078
10.4179
10.3193
10.2088
10.0836
9.94121
9.77987
9.5979
9.39402
9.16731
8.91726
8.64382
8.34752
8.02956
7.69187
7.33726
6.96944
6.59315
6.21413
5.83916
5.476
5.13333
4.82056
4.54767
4.32491
4.16254
4.0704
4.05752
4.13175
4.30919
4.60073
5.01022
5.53828
6.18193
6.93426
7.78419
8.71631
9.71089
10.7441
11.7888
12.8147
13.7906
14.6852
15.4695
16.1188
16.6148
16.9479
17.1181
17.1355
17.0194
16.7965
16.4978
16.1551
15.7982
15.4524
15.1376
14.868
10.7564
10.5511
10.3872
10.2547
10.1436
10.0447
9.95034
9.85408
9.75065
9.63572
9.5057
9.35756
9.18868
8.9968
8.77999
8.53659
8.26535
7.96541
7.63642
7.27868
6.8932
6.48184
6.04746
5.59398
5.12646
4.65121
4.17574
3.70878
3.26015
2.84065
2.46181
2.13565
1.87428
1.68956
1.59256
1.59306
1.70673
1.95134
2.33365
2.85639
3.51844
4.31443
5.2343
6.26306
7.38057
8.56166
9.77647
10.9911
12.1691
13.2726
14.2651
15.1137
15.7919
16.2825
16.5795
16.6894
16.631
16.4331
16.1317
15.7653
15.3711
14.981
14.6203
14.3067
10.0875
9.88233
9.71732
9.5821
9.46636
9.36074
9.25723
9.14919
9.03111
8.89843
8.7473
8.5744
8.3768
8.15188
7.89734
7.61114
7.29163
6.93757
6.54828
6.12375
5.6648
5.17317
4.65175
4.10461
3.53719
2.95633
2.37029
1.78876
1.22279
0.684561
0.187257
-0.255302
-0.629001
-0.91988
-1.11465
-1.20124
-1.16488
-0.982132
-0.641553
-0.137977
0.529741
1.35821
2.33897
3.45807
4.69566
6.0259
7.41703
8.8319
10.229
11.5642
12.7928
13.8726
14.7675
15.4508
15.9082
16.1406
16.1642
16.0092
15.7162
15.3313
14.8999
14.4625
14.0509
13.6877
9.36855
9.16463
8.99908
8.86139
8.74099
8.62829
8.51506
8.39444
8.2607
8.10905
7.93537
7.73602
7.50774
7.24754
6.95269
6.62074
6.24961
5.83764
5.38378
4.88769
4.34992
3.77211
3.15711
2.50916
1.83403
1.13908
0.43334
-0.272519
-0.966259
-1.63423
-2.26161
-2.83271
-3.33137
-3.74142
-4.04724
-4.23433
-4.28807
-4.18228
-3.89907
-3.43013
-2.77174
-1.92487
-0.895838
0.303112
1.65323
3.12884
4.69719
6.31865
7.94747
9.53323
11.0231
12.3651
13.5117
14.4249
15.0798
15.469
15.6038
15.514
15.2442
14.8482
14.3814
13.8942
13.4268
13.0077
8.60123
8.39954
8.23407
8.09417
7.96909
7.84905
7.72564
7.59178
7.44156
7.26993
7.07248
6.84528
6.58469
6.28732
5.95001
5.56986
5.14432
4.67128
4.14928
3.57762
2.95658
2.28761
1.57354
0.818745
0.0292951
-0.786919
-1.62013
-2.4587
-3.28919
-4.09651
-4.86417
-5.57461
-6.20962
-6.75078
-7.18011
-7.48062
-7.63666
-7.62174
-7.41197
-6.9942
-6.36188
-5.51321
-4.45185
-3.18764
-1.73744
-0.125752
1.61475
3.44302
5.31007
7.15998
8.93206
10.564
11.9963
13.1773
14.0694
14.6535
14.9332
14.9355
14.7078
14.3113
13.8126
13.2738
12.7458
12.2643
7.78754
7.58906
7.42428
7.28248
7.15277
7.02525
6.89134
6.7438
6.57649
6.38414
6.16205
5.90596
5.61186
5.27594
4.89457
4.46439
3.98236
3.4459
2.85308
2.20284
1.49515
0.731262
-0.0860459
-0.952299
-1.86113
-2.80416
-3.77091
-4.74878
-5.72316
-6.67755
-7.59384
-8.45262
-9.23363
-9.91627
-10.4802
-10.9059
-11.1756
-11.2641
-11.1431
-10.7934
-10.205
-9.37308
-8.29812
-6.98702
-5.45387
-3.721
-1.81981
0.208606
2.3133
4.43408
6.50316
8.44822
10.1969
11.6828
12.8525
13.6726
14.1352
14.2613
14.0988
13.7159
13.191
12.6001
12.0068
11.4559
6.92997
6.73564
6.57215
6.42878
6.2946
6.1596
6.01507
5.85363
5.66893
5.45547
5.20828
4.92273
4.59445
4.21919
3.79287
3.31161
2.77186
2.17057
1.50535
0.774711
-0.0216967
-0.882825
-1.80599
-2.78663
-3.81811
-4.89159
-5.99591
-7.11756
-8.2408
-9.34778
-10.4188
-11.4327
-12.3672
-13.1996
-13.9073
-14.4683
-14.8623
-15.0652
-15.0462
-14.7811
-14.2549
-13.4593
-12.3916
-11.055
-9.46028
-7.62643
-5.58236
-3.36772
-1.03379
1.35653
3.72975
6.00434
8.09515
9.91988
11.4072
12.5058
13.1927
13.4787
13.4091
13.0578
12.515
11.8728
11.2099
10.5826
6.03146
5.84212
5.6805
5.53595
5.39755
5.25524
5.10022
4.92495
4.72293
4.48839
4.2161
3.90109
3.5386
3.12394
2.65254
2.12004
1.52237
0.855972
0.117971
-0.693537
-1.57924
-2.53832
-3.5682
-4.66427
-5.81966
-7.02509
-8.26876
-9.53632
-10.811
-12.0735
-13.3029
-14.4761
-15.5692
-16.5573
-17.4156
-18.1199
-18.6473
-18.974
-19.0681
-18.9025
-18.4562
-17.7169
-16.6784
-15.34
-13.7083
-11.7983
-9.63501
-7.25519
-4.70856
-2.05876
0.616863
3.22906
5.68064
7.873
9.71522
11.135
12.0897
12.5757
12.6314
12.3335
11.7844
11.0933
10.357
9.64593
5.09529
4.91167
4.75246
4.60716
4.46492
4.31567
4.15055
3.96189
3.74301
3.48793
3.19112
2.84729
2.45127
1.99795
1.48228
0.899385
0.244688
-0.485891
-1.29569
-2.18706
-3.16103
-4.21704
-5.35262
-6.56314
-7.84153
-9.17812
-10.5605
-11.9737
-13.3996
-14.8182
-16.2068
-17.5409
-18.7948
-19.9419
-20.9553
-21.8086
-22.4764
-22.9344
-23.1509
-23.0968
-22.7467
-22.0831
-21.0958
-19.7803
-18.1386
-16.1807
-13.9269
-11.4094
-8.67442
-5.78417
-2.8175
0.130773
2.95294
5.53461
7.76423
9.54576
10.8129
11.5418
11.7592
11.5412
11.0004
10.2648
9.45227
8.65004
4.125
3.9477
3.79139
3.64583
3.50026
3.34468
3.17016
2.96893
2.73415
2.45961
2.1395
1.7682
1.34015
0.849798
0.291635
-0.339721
-1.04936
-1.84187
-2.72107
-3.68974
-4.74927
-5.89935
-7.13767
-8.45959
-9.85788
-11.3225
-12.8407
-14.3964
-15.9711
-17.5433
-19.0893
-20.5831
-21.9975
-23.3041
-24.4743
-25.4796
-26.2927
-26.8877
-27.2336
-27.3002
-27.0601
-26.4899
-25.5751
-24.3071
-22.6832
-20.708
-18.3961
-15.7736
-12.8816
-9.77839
-6.54173
-3.26925
-0.0768033
2.90683
5.54946
7.72934
9.35228
10.3691
10.7885
10.6808
10.1667
9.39337
8.5025
7.60175
3.12433
2.95376
2.8008
2.65548
2.50726
2.34618
2.16332
1.95081
1.70161
1.40931
1.06782
0.671189
0.213467
-0.311319
-0.909147
-1.58589
-2.34714
-3.19798
-4.14272
-5.18455
-6.32523
-7.56473
-8.90089
-10.3291
-11.842
-13.4293
-15.0777
-16.7708
-18.4889
-20.2099
-21.9087
-23.5584
-25.1301
-26.5942
-27.9202
-29.0781
-30.0386
-30.7741
-31.2544
-31.4486
-31.3284
-30.8671
-30.0443
-28.8472
-27.2684
-25.3072
-22.9715
-20.2805
-17.2684
-13.9873
-10.5109
-6.93644
-3.38494
0.00295402
3.07543
5.68409
7.70351
9.05337
9.71781
9.75492
9.28966
8.48795
7.51792
6.51138
2.09709
1.93346
1.78418
1.63966
1.48961
1.32417
1.13441
0.91236
0.650824
0.343148
-0.0170401
-0.436028
-0.920136
-1.47576
-2.10934
-2.82722
-3.63549
-4.53973
-5.54468
-6.65399
-7.86976
-9.19225
-10.6195
-12.1469
-13.767
-15.4695
-17.2405
-19.0631
-20.9172
-22.7795
-24.6242
-26.4233
-28.1467
-29.7634
-31.2418
-32.5502
-33.6579
-34.5353
-35.1527
-35.4793
-35.4859
-35.1452
-34.431
-33.3259
-31.8181
-29.9012
-27.5765
-24.8555
-21.7639
-18.3457
-14.6676
-10.8233
-6.93489
-3.15167
0.35725
3.41708
5.86877
7.59566
8.5499
8.76998
8.37946
7.56146
6.5128
5.39341
1.04704
0.890319
0.74496
0.601829
0.450926
0.28254
0.0877377
-0.141561
-0.412732
-0.732681
-1.10808
-1.54555
-2.0518
-2.63365
-3.29796
-4.05157
-4.90103
-5.85238
-6.91085
-8.08046
-9.36371
-10.7611
-12.2709
-13.8886
-15.6068
-17.4149
-19.2988
-21.2412
-23.2213
-25.2154
-27.1969
-29.1366
-31.0038
-32.7662
-34.391
-35.8456
-37.0976
-38.1162
-38.8713
-39.3325
-39.4706
-39.2576
-38.6655
-37.6705
-36.2566
-34.4122
-32.1319
-29.4192
-26.2905
-22.7798
-18.9443
-14.8704
-10.6776
-6.51928
-2.57848
0.945342
3.85838
6.00321
7.29258
7.73671
7.45062
6.63147
5.50627
4.26727
-0.0222482
-0.17236
-0.313691
-0.454837
-0.605438
-0.775041
-0.972578
-1.20626
-1.48368
-1.81203
-2.19829
-2.64946
-3.17263
-3.77504
-4.46399
-5.24677
-6.13039
-7.12136
-8.22533
-9.44674
-10.7884
-12.2512
-13.8335
-15.5311
-17.3364
-19.2388
-21.2241
-23.2747
-25.3693
-27.4838
-29.5907
-31.6605
-33.6614
-35.5604
-37.3239
-38.918
-40.3095
-41.4662
-42.3576
-42.9536
-43.2251
-43.1442
-42.6829
-41.8124
-40.5117
-38.7645
-36.5592
-33.8913
-30.7674
-27.2102
-23.2654
-19.0087
-14.5526
-10.0501
-5.69326
-1.70323
1.69201
4.29095
5.95992
6.67141
6.52305
5.72104
4.52315
3.15814
-1.10749
-1.25162
-1.38897
-1.52753
-1.6765
-1.84525
-2.04274
-2.27733
-2.55689
-2.88894
-3.28084
-3.73997
-4.27385
-4.89013
-5.59656
-6.40088
-7.31054
-8.33249
-9.47281
-10.7363
-12.1262
-13.6436
-15.2871
-17.0526
-18.9328
-20.917
-22.9907
-25.1363
-27.3323
-29.554
-31.7738
-33.9613
-36.0843
-38.1093
-40.0016
-41.7268
-43.2509
-44.5408
-45.5651
-46.294
-46.6988
-46.7518
-46.4252
-45.6896
-44.5171
-42.8876
-40.7838
-38.1935
-35.1136
-31.5551
-27.5503
-23.1615
-18.49
-13.6831
-8.93698
-4.4894
-0.600479
2.48258
4.57342
5.59697
5.62297
4.85973
3.59494
2.09798
-2.20588
-2.34499
-2.47861
-2.61397
-2.75981
-2.92529
-3.11941
-3.35077
-3.62759
-3.95779
-4.34917
-4.80958
-5.34696
-5.96943
-6.6852
-7.50243
-8.42903
-9.47234
-10.6389
-11.9338
-13.3606
-14.9208
-16.6132
-18.4339
-20.3756
-22.4277
-24.576
-26.8024
-29.0854
-31.4001
-33.7187
-36.0103
-38.2426
-40.3812
-42.3912
-44.2376
-45.8858
-47.302
-48.4541
-49.3123
-49.8481
-50.0343
-49.8437
-49.2476
-48.2142
-46.718
-44.7371
-42.2524
-39.2516
-35.7338
-31.7169
-27.2476
-22.4126
-17.3483
-12.2487
-7.36267
-2.97834
0.611583
3.16317
4.54398
4.78408
4.08467
2.7609
1.12654
-3.3152
-3.45067
-3.581
-3.71258
-3.8536
-4.01299
-4.19986
-4.42314
-4.6915
-5.01339
-5.39715
-5.85116
-6.38389
-7.00393
-7.71997
-8.5406
-9.47417
-10.5284
-11.7102
-13.0252
-14.477
-16.0675
-17.7958
-19.658
-21.6473
-23.7529
-25.9608
-28.253
-30.608
-33.0007
-35.4031
-37.7844
-40.1119
-42.3509
-44.4664
-46.4228
-48.1851
-49.7191
-50.9923
-51.9743
-52.6373
-52.954
-52.898
-52.4416
-51.5534
-50.2011
-48.3589
-46.002
-43.1096
-39.6691
-35.6842
-31.1845
-26.2388
-20.9681
-15.558
-10.2617
-5.38978
-1.27802
1.76885
3.55193
4.04867
3.44176
2.0693
0.292636
-4.434
-4.56765
-4.6954
-4.82264
-4.95691
-5.10696
-5.28208
-5.49164
-5.74494
-6.0511
-6.41915
-6.85813
-7.37709
-7.98519
-8.6916
-9.50539
-10.4353
-11.4895
-12.6751
-13.9981
-15.4626
-17.0705
-18.8212
-20.7112
-22.7336
-24.878
-27.1304
-29.473
-31.8843
-34.3395
-36.8104
-39.2664
-41.6744
-43.9999
-46.2077
-48.2619
-50.1273
-51.7694
-53.1553
-54.2543
-55.0386
-55.4814
-55.5566
-55.2374
-54.4943
-53.2919
-51.5986
-49.3852
-46.6236
-43.2907
-39.3758
-34.8912
-29.8854
-24.4603
-18.7869
-13.1155
-7.77203
-3.13111
0.440806
2.67039
3.46896
2.98705
1.57883
-0.344438
-5.56177
-5.69595
-5.82209
-5.94445
-6.06982
-6.20678
-6.3649
-6.55424
-6.78489
-7.06688
-7.41013
-7.82445
-8.31963
-8.90546
-9.59165
-10.3877
-11.3029
-12.3455
-13.5233
-14.8423
-16.3068
-17.9192
-19.679
-21.5828
-23.6239
-25.7924
-28.0742
-30.4518
-32.9039
-35.4059
-37.9298
-40.4451
-42.9188
-45.3165
-47.6028
-49.742
-51.6986
-53.4381
-54.9272
-56.1348
-57.0332
-57.5957
-57.7966
-57.6099
-57.0076
-55.9555
-54.4158
-52.3552
-49.7394
-46.5363
-42.7219
-38.2907
-33.2705
-27.7403
-21.8516
-15.8444
-10.0518
-4.88109
-0.759047
1.9603
3.10857
2.78837
1.36035
-0.713183
-6.69915
-6.83683
-6.96267
-7.07956
-7.19355
-7.31305
-7.44814
-7.60975
-7.80909
-8.05739
-8.36565
-8.74472
-9.20526
-9.75777
-10.4126
-11.1797
-12.0686
-13.0882
-14.2463
-15.5492
-17.0015
-18.6057
-20.3614
-22.2657
-24.3119
-26.4902
-28.787
-31.1849
-33.6629
-36.1964
-38.758
-41.3173
-43.8417
-46.2968
-48.6476
-50.8584
-52.8936
-54.7188
-56.3006
-57.6073
-58.611
-59.2852
-59.6045
-59.5434
-59.0748
-58.1674
-56.7805
-54.8755
-52.4132
-49.3536
-45.6609
-41.3128
-36.3156
-30.7239
-24.665
-18.3617
-12.146
-6.44969
-1.75629
1.49538
3.0442
2.92719
1.49886
-0.727836
-7.84809
-7.99295
-8.12019
-8.23106
-8.33074
-8.42767
-8.53267
-8.65789
-8.81607
-9.01993
-9.28194
-9.61419
-10.0284
-10.5359
-11.1477
-11.8743
-12.7257
-13.7109
-14.838
-16.1136
-17.5423
-19.1268
-20.8668
-22.7595
-24.7984
-26.9739
-29.2724
-31.6768
-34.1665
-36.7172
-39.3017
-41.89
-44.4499
-46.9475
-49.348
-51.616
-53.7163
-55.6144
-57.277
-58.6722
-59.7714
-60.5479
-60.9763
-61.0314
-60.6873
-59.9142
-58.6738
-56.9208
-54.612
-51.7009
-48.1411
-43.895
-38.9479
-33.3292
-27.1384
-20.5753
-13.9623
-7.74679
-2.46302
1.36375
3.36765
3.50093
2.09604
-0.285818
-9.01213
-9.16873
-9.29947
-9.4037
-9.48565
-9.55396
-9.62059
-9.69941
-9.80514
-9.95252
-10.1558
-10.4288
-10.7843
-11.2347
-11.7918
-12.4666
-13.2693
-14.2095
-15.2952
-16.533
-17.9278
-19.4822
-21.196
-23.0662
-25.0868
-27.2478
-29.5362
-31.9349
-34.4234
-36.9781
-39.5719
-42.1753
-44.7565
-47.2823
-49.718
-52.029
-54.1802
-56.1376
-57.868
-59.3395
-60.5229
-61.3911
-61.9181
-62.0785
-61.8465
-61.1941
-60.0866
-58.4762
-56.3136
-53.547
-50.1209
-45.984
-41.1019
-35.4782
-29.1834
-22.389
-15.4001
-8.67023
-2.77663
1.66984
4.18823
4.62575
3.27334
0.735459
-10.1968
-10.3707
-10.5075
-10.6043
-10.6643
-10.6968
-10.7153
-10.7361
-10.7766
-10.854
-10.985
-11.1852
-11.469
-11.8499
-12.3404
-12.9522
-13.6957
-14.5807
-15.6152
-16.806
-18.1577
-19.6728
-21.3511
-23.1897
-25.1822
-27.3191
-29.587
-31.9693
-34.4458
-36.9929
-39.584
-42.1902
-44.78
-47.3208
-49.7785
-52.1187
-54.3072
-56.3101
-58.0948
-59.6294
-60.8843
-61.832
-62.4457
-62.6994
-62.5665
-62.0187
-61.0236
-59.5377
-57.5062
-54.8712
-51.569
-47.5359
-42.7193
-37.0982
-30.7128
-23.7033
-16.3507
-9.1053
-2.57839
2.5368
5.63588
6.44016
5.1759
2.48263
-11.41
-11.6082
-11.7541
-11.8421
-11.875
-11.8627
-11.8215
-11.7707
-11.7312
-11.7236
-11.7674
-11.8804
-12.0788
-12.3775
-12.7897
-13.3276
-14.0021
-14.8226
-15.7973
-16.9328
-18.2334
-19.7016
-21.3368
-23.136
-25.0928
-27.1974
-29.4366
-31.7938
-34.2491
-36.7791
-39.3576
-41.9561
-44.5437
-47.088
-49.5558
-51.913
-54.126
-56.1615
-57.9869
-59.571
-60.8838
-61.8973
-62.5842
-62.9173
-62.8689
-62.4096
-61.5064
-60.1187
-58.1907
-55.6629
-52.4638
-48.5159
-43.75
-38.1218
-31.6417
-24.4164
-16.6975
-8.92392
-1.7314
4.1096
7.86508
9.10951
7.97755
5.13155
-12.663
-12.8941
-13.0525
-13.13
-13.1286
-13.0605
-12.9453
-12.8068
-12.6705
-12.5609
-12.501
-12.5115
-12.6105
-12.8142
-13.1367
-13.5905
-14.1866
-14.9345
-15.8421
-16.9154
-18.1588
-19.5739
-21.1602
-22.9142
-24.8293
-26.8955
-29.0997
-31.4252
-33.8523
-36.3578
-38.916
-41.4984
-44.0749
-46.6134
-49.0813
-51.445
-53.6712
-55.7272
-57.5808
-59.201
-60.5578
-61.6227
-62.3676
-62.7644
-62.7838
-62.3946
-61.5621
-60.2452
-58.3893
-55.9286
-52.793
-48.8976
-44.1509
-38.4868
-31.8868
-24.4234
-16.3154
-7.9832
-0.0779663
6.559
11.0599
12.8319
11.8873
8.89396
-13.971
-14.246
-14.4209
-14.4847
-14.4398
-14.3015
-14.0947
-13.8491
-13.5962
-13.3655
-13.1842
-13.0759
-13.0611
-13.1572
-13.379
-13.7394
-14.2493
-14.9177
-15.7521
-16.7582
-17.9396
-19.2976
-20.8309
-22.5358
-24.4052
-26.4291
-28.594
-30.8834
-33.2774
-35.7533
-38.2854
-40.8457
-43.4044
-45.93
-48.3901
-50.7516
-52.9818
-55.048
-56.9184
-58.5622
-59.9495
-61.0512
-61.8383
-62.2814
-62.3497
-62.0095
-61.2235
-59.948
-58.1288
-55.6941
-52.5673
-48.6629
-43.8852
-38.1351
-31.3656
-23.6158
-15.0695
-6.12332
2.56397
10.0868
15.4409
17.846
17.1578
14.0263
-15.3553
-15.6878
-15.8834
-15.9286
-15.8273
-15.6002
-15.2796
-14.9035
-14.5107
-14.1373
-13.8151
-13.5711
-13.4279
-13.4042
-13.5153
-13.7741
-14.1911
-14.7748
-15.5319
-16.4674
-17.5841
-18.8825
-20.3609
-22.0148
-23.8367
-25.8162
-27.9398
-30.1906
-32.549
-34.9922
-37.4948
-40.0292
-42.5658
-45.0734
-47.52
-49.8729
-52.0996
-54.1676
-56.0452
-57.7015
-59.1065
-60.2307
-61.0441
-61.5154
-61.6118
-61.297
-60.5302
-59.2637
-57.4402
-54.985
-51.8105
-47.8237
-42.9243
-37.0113
-29.9955
-21.8799
-12.8133
-3.1648
6.40518
14.9324
21.2736
24.4414
24.0971
20.8414
-16.8449
-17.2524
-17.4729
-17.4911
-17.3151
-16.9745
-16.5121
-15.9769
-15.417
-14.8762
-14.3919
-13.9945
-13.7085
-13.5536
-13.5451
-13.6956
-14.0148
-14.5103
-15.1878
-16.0513
-17.1024
-18.341
-19.7643
-21.3672
-23.1418
-25.077
-27.1591
-29.3712
-31.6934
-34.103
-36.5749
-39.0816
-41.5938
-44.0805
-46.5101
-48.8501
-51.0679
-53.1313
-55.0082
-56.6675
-58.0788
-59.2121
-60.036
-60.5171
-60.6199
-60.3048
-59.5268
-58.2329
-56.3599
-53.8297
-50.5429
-46.3945
-41.2728
-35.0684
-27.6918
-19.0954
-9.38651
1.09451
11.6902
21.3809
28.8805
32.973
33.0841
29.7253
-18.4808
-18.9857
-19.2343
-19.2116
-18.9346
-18.4468
-17.8064
-17.0767
-16.3177
-15.5818
-14.9124
-14.3434
-13.9007
-13.6041
-13.4688
-13.506
-13.7245
-14.1303
-14.7279
-15.5198
-16.5066
-17.6869
-19.0571
-20.611
-22.3402
-24.2332
-26.2756
-28.4505
-30.7379
-33.115
-35.5568
-38.036
-40.5234
-42.9885
-45.3995
-47.7241
-49.9296
-51.9836
-53.8538
-55.5083
-56.9159
-58.0454
-58.8649
-59.3378
-59.4249
-59.0826
-58.2603
-56.8987
-54.927
-52.2588
-48.7855
-44.3849
-38.9296
-32.294
-24.3772
-15.1341
-4.6142
6.88187
18.7019
29.7722
38.6549
43.8803
44.5917
41.1606
-20.3218
-20.9529
-21.2297
-21.1429
-20.7262
-20.0447
-19.179
-18.2109
-17.2148
-16.2526
-15.3735
-14.6144
-14.0019
-13.555
-13.2873
-13.2085
-13.3253
-13.6422
-14.1617
-14.8846
-15.8102
-16.9356
-18.2562
-19.765
-21.4526
-23.3069
-25.3132
-27.4542
-29.7097
-32.057
-34.4711
-36.9247
-39.3887
-41.8328
-44.2252
-46.5335
-48.7249
-50.7665
-52.6253
-54.2686
-55.6638
-56.7781
-57.5782
-58.0253
-58.0749
-57.6776
-56.7763
-55.3037
-53.1789
-50.3039
-46.5595
-41.8031
-35.887
-28.6641
-20.0124
-9.87366
1.69283
14.4496
27.7647
40.5091
51.0789
57.7143
59.2201
55.7633
-22.4552
-23.249
-23.5473
-23.3569
-22.7419
-21.8017
-20.6479
-19.3865
-18.1082
-16.8848
-15.7702
-14.8029
-14.0089
-13.4048
-13.0017
-12.8065
-12.8233
-13.0541
-13.4993
-14.1579
-15.0271
-16.1029
-17.3793
-18.8482
-20.4993
-22.3201
-24.2952
-26.4069
-28.6349
-30.9564
-33.3462
-35.7773
-38.2205
-40.6455
-43.0205
-45.3128
-47.4894
-49.5166
-51.3605
-52.9873
-54.3624
-55.4511
-56.2173
-56.6209
-56.6112
-56.1311
-55.1152
-53.4859
-51.1499
-47.9945
-43.8843
-38.6562
-32.1357
-24.1484
-14.5438
-3.2387
9.7198
24.0695
39.2405
54.0616
66.7411
75.1735
77.7467
74.3409
-25.0134
-26.0152
-26.313
-25.9516
-25.0486
-23.7569
-22.2312
-20.6072
-18.9933
-17.4699
-16.0934
-14.9011
-13.9161
-13.1507
-12.6119
-12.3026
-12.2235
-12.3736
-12.7506
-13.3512
-14.1709
-15.2039
-16.4428
-17.8784
-19.4995
-21.2929
-23.2427
-25.3307
-27.5365
-29.8369
-32.2069
-34.6193
-37.045
-39.4534
-41.8127
-44.09
-46.2516
-48.2629
-50.0892
-51.6946
-53.0428
-54.096
-54.8147
-55.1565
-55.0657
-54.4751
-53.3085
-51.4755
-48.8676
-45.3539
-40.7775
-34.9515
-27.6688
-18.7206
-7.91924
4.85485
19.5834
36.0101
53.5143
70.9587
86.349
97.1484
101.202
97.9864
-28.2061
-29.4676
-29.7103
-29.0601
-27.7291
-25.9521
-23.9416
-21.8681
-19.8562
-17.991
-16.3266
-14.8949
-13.7126
-12.7856
-12.1142
-11.6964
-11.5285
-11.6057
-11.9229
-12.474
-13.2525
-14.2509
-15.4602
-16.8703
-18.4688
-20.2418
-22.1729
-24.2435
-26.4326
-28.7173
-31.0722
-33.4699
-35.8815
-38.2761
-40.6216
-42.8847
-45.0311
-47.0252
-48.8309
-50.4104
-51.7249
-52.7333
-53.3919
-53.6531
-53.4591
-52.7303
-51.3768
-49.2929
-46.3517
-42.4002
-37.2549
-30.6997
-22.4891