# vtk DataFile Version 2.0
Lid-driven cavity
ASCII
DATASET STRUCTURED_POINTS
DIMENSIONS 64 64 1
ORIGIN 0.0078125 0.0078125 0
SPACING 0.015625 0.015625 1
POINT_DATA 4096
SCALARS pressure double 1
LOOKUP_TABLE default
7.76126
7.74917
7.72512
7.69627
7.66817
7.64458
7.62787
7.61939
7.61987
7.62958
7.64857
7.67673
7.71393
7.76001
7.81483
7.8783
7.95036
8.031
8.12022
8.21803
8.32445
8.43947
8.56305
8.69509
8.83541
8.98376
9.13977
9.30296
9.47271
9.64827
9.82875
10.0131
10.2002
10.3887
10.5772
10.7641
10.9478
11.1266
11.2988
11.4628
11.6169
11.7597
11.8899
12.0064
12.1084
12.1954
12.2671
12.3237
12.3654
12.3931
12.4076
12.4101
12.4021
12.385
12.3606
12.3307
12.2971
12.2618
12.2268
12.1943
12.1665
12.1458
12.1341
12.1321
7.77335
7.76116
7.74146
7.71883
7.69719
7.67946
7.66767
7.66313
7.6666
7.67851
7.699
7.7281
7.76578
7.81195
7.86654
7.9295
8.00079
8.08041
8.16836
8.26464
8.36926
8.48218
8.60334
8.73263
8.86985
9.01473
9.16691
9.32589
9.49107
9.66173
9.83699
10.0158
10.1972
10.3798
10.5623
10.7431
10.9209
11.0939
11.2605
11.4193
11.5686
11.7072
11.8338
11.9474
12.0473
12.133
12.2042
12.2612
12.3042
12.3339
12.3513
12.3574
12.3535
12.3412
12.322
12.2976
12.2697
12.2401
12.2107
12.1834
12.16
12.1423
12.132
12.1302
7.79766
7.78067
7.76069
7.74036
7.72219
7.70822
7.69999
7.69855
7.70458
7.71846
7.74039
7.77046
7.80866
7.85497
7.90938
7.97185
8.04238
8.12098
8.20765
8.3024
8.40522
8.5161
8.63495
8.76166
8.89603
9.0378
9.1866
9.34196
9.50328
9.66987
9.84087
10.0153
10.1922
10.3702
10.5481
10.7244
10.8977
11.0664
11.229
11.384
11.5299
11.6654
11.7894
11.9009
11.9992
12.0838
12.1546
12.2117
12.2554
12.2864
12.3055
12.314
12.313
12.3039
12.2883
12.2677
12.2437
12.2181
12.1924
12.1684
12.1476
12.1315
12.1215
12.1188
7.82721
7.80317
7.78021
7.75958
7.74269
7.73081
7.72492
7.72576
7.7338
7.74935
7.77255
7.80349
7.84218
7.88863
7.94285
8.00482
8.07457
8.15212
8.2375
8.33072
8.43178
8.54067
8.65733
8.78163
8.91341
9.05241
9.19828
9.35056
9.5087
9.672
9.83966
10.0107
10.1842
10.3589
10.5335
10.7067
10.877
11.0428
11.2028
11.3553
11.499
11.6325
11.7548
11.8649
11.9621
12.046
12.1164
12.1734
12.2173
12.2489
12.2691
12.2788
12.2795
12.2723
12.2588
12.2406
12.219
12.1958
12.1723
12.15
12.1303
12.1145
12.1037
12.0987
7.85634
7.82454
7.79721
7.77471
7.75762
7.74655
7.74201
7.74438
7.75392
7.77076
7.79499
7.82664
7.86573
7.91224
7.96621
8.02764
8.09658
8.17305
8.25711
8.34879
8.44812
8.55509
8.66966
8.79174
8.92117
9.05773
9.20108
9.35081
9.50639
9.66715
9.83231
10.001
10.1721
10.3446
10.5172
10.6885
10.8571
11.0214
11.18
11.3313
11.474
11.6066
11.7282
11.8376
11.9343
12.0178
12.0878
12.1446
12.1885
12.2203
12.2407
12.2509
12.2521
12.2457
12.2332
12.216
12.1955
12.1732
12.1506
12.1288
12.1091
12.0925
12.0799
12.072
7.8808
7.8413
7.80904
7.78379
7.76556
7.75442
7.75046
7.75373
7.76426
7.78203
7.80702
7.83918
7.8785
7.92497
7.97859
8.03941
8.10746
8.18281
8.26553
8.35567
8.45328
8.55839
8.67099
8.791
8.91832
9.05273
9.19397
9.34163
9.49523
9.65414
9.81761
9.98475
10.1546
10.326
10.4977
10.6683
10.8364
11.0005
11.1589
11.3102
11.453
11.5858
11.7074
11.817
11.9138
11.9973
12.0673
12.1239
12.1676
12.1991
12.2192
12.2291
12.2301
12.2235
12.2109
12.1935
12.1729
12.1505
12.1275
12.1051
12.0844
12.0663
12.0514
12.0402
7.89735
7.85056
7.81328
7.78489
7.76496
7.75315
7.7492
7.75288
7.76398
7.78232
7.80777
7.84021
7.87958
7.92585
7.97901
8.03911
8.1062
8.18036
8.26169
8.35028
8.44619
8.54949
8.6602
8.7783
8.90371
9.03627
9.17575
9.3218
9.47396
9.63166
9.79417
9.96064
10.1301
10.3014
10.4733
10.6444
10.8132
10.9781
11.1376
11.2901
11.4341
11.5681
11.6909
11.8014
11.8989
11.9829
12.0532
12.1098
12.1533
12.1842
12.2036
12.2127
12.2127
12.2051
12.1914
12.1729
12.1512
12.1276
12.1033
12.0794
12.0569
12.0366
12.0192
12.0048
7.90349
7.84993
7.80777
7.77612
7.7542
7.74136
7.73702
7.74071
7.75202
7.77062
7.79625
7.82874
7.86796
7.91385
7.96641
8.02566
8.09169
8.16459
8.24447
8.33146
8.42567
8.5272
8.6361
8.75242
8.8761
9.00706
9.14509
9.28992
9.44113
9.59819
9.76042
9.927
10.0969
10.2691
10.4421
10.6148
10.7854
10.9525
11.1142
11.2691
11.4154
11.5516
11.6766
11.789
11.888
11.9731
12.0441
12.101
12.1443
12.1747
12.1931
12.2009
12.1993
12.19
12.1743
12.1539
12.1301
12.1043
12.0778
12.0517
12.0268
12.004
11.9837
11.9663
7.89716
7.83736
7.79058
7.75571
7.7317
7.71761
7.71261
7.71602
7.72724
7.74582
7.77138
7.80368
7.84254
7.88787
7.93966
7.99793
8.06278
8.13431
8.21267
8.29802
8.3905
8.49026
8.5974
8.71202
8.83412
8.96366
9.10051
9.24445
9.39512
9.55204
9.71458
9.88195
10.0531
10.227
10.4022
10.5774
10.751
10.9213
11.0865
11.2449
11.3947
11.5345
11.6626
11.7779
11.8794
11.9664
12.0387
12.0963
12.1397
12.1695
12.1868
12.1929
12.1893
12.1776
12.1593
12.136
12.1094
12.0806
12.0512
12.022
11.9942
11.9684
11.9453
11.925
7.87661
7.81107
7.75997
7.72201
7.69589
7.68044
7.67462
7.67753
7.68843
7.70674
7.732
7.76388
7.80217
7.84675
7.89759
7.95472
8.01824
8.08829
8.16503
8.24865
8.33934
8.4373
8.54268
8.65563
8.77622
8.90447
9.04033
9.18362
9.33406
9.49123
9.65457
9.82333
9.99647
10.1728
10.3511
10.5298
10.7074
10.882
11.0518
11.215
11.3697
11.5142
11.6468
11.7662
11.8712
11.9611
12.0355
12.0944
12.1382
12.1676
12.1838
12.1881
12.1821
12.1675
12.1459
12.1191
12.0888
12.0563
12.0232
11.9904
11.959
11.93
11.9038
11.8808
7.8403
7.76947
7.71435
7.67347
7.6453
7.62845
7.62168
7.62393
7.63433
7.65216
7.67689
7.70814
7.74565
7.78928
7.83898
7.8948
7.95683
8.02523
8.1002
8.18197
8.27077
8.36683
8.47038
8.58162
8.70069
8.82768
8.9626
9.10537
9.25577
9.41345
9.57793
9.74853
9.92419
10.1037
10.2858
10.469
10.6515
10.8316
11.0073
11.1766
11.3375
11.4881
11.6266
11.7514
11.8613
11.9552
12.0328
12.0938
12.1387
12.1682
12.1835
12.1859
12.1772
12.1592
12.1338
12.1028
12.0681
12.0311
11.9935
11.9564
11.9211
11.8883
11.8588
11.8333
7.78682
7.7111
7.65226
7.60863
7.57849
7.56024
7.55246
7.55392
7.56364
7.58081
7.60482
7.63522
7.67174
7.7142
7.76256
7.81684
7.87718
7.94375
8.01677
8.09649
8.18321
8.27721
8.37877
8.48815
8.60557
8.73119
8.8651
9.00731
9.15769
9.31597
9.48175
9.65443
9.83303
10.0163
10.2028
10.3912
10.5797
10.7664
10.9492
11.126
11.2946
11.4529
11.5989
11.7308
11.847
11.9465
12.0286
12.0929
12.1399
12.1701
12.1848
12.1855
12.1741
12.1524
12.1226
12.0868
12.0469
12.0047
11.9619
11.9198
11.8798
11.8429
11.8099
11.7816
7.71487
7.63461
7.57231
7.52611
7.4941
7.47446
7.46561
7.4662
7.47509
7.49142
7.5145
7.54385
7.57915
7.62021
7.66699
7.71951
7.77791
7.84238
7.91318
7.9906
8.07497
8.16662
8.2659
8.37313
8.48861
8.61258
8.74522
8.88663
9.03678
9.19552
9.36252
9.5373
9.71901
9.90626
10.0978
10.292
10.4873
10.6816
10.8728
11.0585
11.2365
11.4043
11.5596
11.7005
11.8251
11.932
12.0203
12.0895
12.1398
12.1718
12.1867
12.1861
12.172
12.1465
12.112
12.0708
12.025
11.9768
11.9279
11.8801
11.8347
11.7931
11.7562
11.7248
7.62322
7.53875
7.47324
7.42464
7.39084
7.36983
7.35988
7.35948
7.36742
7.38273
7.40468
7.43275
7.46658
7.50599
7.5509
7.60136
7.6575
7.71956
7.78779
7.86254
7.94416
8.03304
8.12959
8.2342
8.34725
8.46907
8.59994
8.74005
8.8895
9.04825
9.2161
9.39268
9.57736
9.76867
9.96536
10.1659
10.3687
10.5716
10.7723
10.9685
11.1575
11.3368
11.5038
11.656
11.7913
11.908
12.0047
12.0809
12.1363
12.1716
12.1878
12.1867
12.1703
12.141
12.1015
12.0543
12.002
11.9469
11.8912
11.8367
11.7852
11.7381
11.6967
11.6619
7.51073
7.42235
7.35385
7.303
7.26748
7.24512
7.23401
7.23253
7.23936
7.25348
7.27408
7.30062
7.33271
7.37015
7.41286
7.4609
7.51441
7.57362
7.63882
7.71039
7.78871
7.87423
7.9674
8.0687
8.17857
8.29746
8.42575
8.56375
8.71168
8.86964
9.03759
9.21531
9.40237
9.59744
9.7992
10.0063
10.2169
10.4292
10.6407
10.8488
11.0508
11.2438
11.4248
11.5911
11.74
11.8693
11.9775
12.0633
12.1264
12.167
12.1862
12.1858
12.1679
12.1351
12.0905
12.0369
11.9774
11.9146
11.8511
11.789
11.7305
11.677
11.6303
11.5915
7.3763
7.28429
7.21301
7.16004
7.12287
7.09915
7.08683
7.08415
7.08972
7.10243
7.12144
7.14616
7.17618
7.2113
7.25142
7.2966
7.34698
7.40279
7.46437
7.53208
7.60636
7.6877
7.77661
7.87363
7.9793
8.09414
8.21867
8.35334
8.49851
8.65445
8.82129
8.99901
9.18736
9.3854
9.59171
9.80502
10.0237
10.2459
10.4691
10.6906
10.9076
11.1166
11.3146
11.498
11.664
11.8097
11.9328
12.0318
12.1057
12.1546
12.1793
12.1815
12.1634
12.1279
12.0784
12.0182
11.9508
11.8794
11.8071
11.7363
11.6696
11.6088
11.5558
11.5121
7.21892
7.12353
7.04966
6.99469
6.95592
6.93083
6.91721
6.9132
6.91732
6.92838
6.94551
6.96808
6.99567
7.02803
7.06508
7.10685
7.15348
7.20522
7.26239
7.32539
7.39468
7.47078
7.55425
7.6457
7.74576
7.85506
7.97423
8.10388
8.24455
8.3967
8.56068
8.73667
8.92468
9.12428
9.334
9.55278
9.77921
10.0114
10.2471
10.4834
10.7171
10.9449
11.1628
11.3672
11.5542
11.7206
11.8632
11.9798
12.0689
12.13
12.1635
12.171
12.1547
12.1179
12.0641
11.9973
11.9216
11.8408
11.7585
11.6779
11.6016
11.5322
11.4718
11.4222
7.03763
6.93913
6.86285
6.80598
6.76563
6.73913
6.7241
6.7186
6.72104
6.73019
6.74511
6.76515
6.78984
6.81894
6.85232
6.89002
6.93216
6.97897
7.03078
7.08799
7.15107
7.22058
7.29711
7.38133
7.47396
7.57575
7.68746
7.80987
7.94371
8.08969
8.2484
8.42031
8.60571
8.80462
9.01594
9.23876
9.47194
9.71383
9.96221
10.2143
10.4667
10.7157
10.9571
11.1864
11.3993
11.5915
11.7591
11.8989
12.0086
12.087
12.1339
12.1505
12.1391
12.103
12.0462
11.9733
11.8891
11.7981
11.7047
11.6127
11.5255
11.4461
11.3769
11.32
6.83157
6.73021
6.65168
6.593
6.55109
6.5231
6.50655
6.49935
6.49985
6.50676
6.51908
6.53613
6.55741
6.58263
6.61166
6.64448
6.68122
6.72207
6.76735
6.81745
6.87283
6.93406
7.00178
7.07671
7.15964
7.25144
7.35303
7.46536
7.5894
7.72613
7.87643
8.04111
8.22082
8.41599
8.62624
8.85082
9.08902
9.33953
9.60035
9.86877
10.1414
10.4142
10.6824
10.9412
11.1852
11.4093
11.6084
11.7782
11.9154
12.0176
12.0839
12.1149
12.1126
12.0804
12.0227
11.9447
11.8521
11.7503
11.6447
11.5399
11.4402
11.349
11.2693
11.2037
6.59994
6.49598
6.41537
6.35494
6.31146
6.2819
6.26365
6.25453
6.25279
6.25708
6.26636
6.27988
6.29713
6.31777
6.34162
6.36864
6.3989
6.43257
6.46992
6.5113
6.55719
6.60813
6.66477
6.72789
6.79836
6.87714
6.96532
7.06407
7.17461
7.29821
7.43614
7.5896
7.75967
7.94722
8.15271
8.37575
8.61627
8.87344
9.14563
9.43034
9.72419
10.023
10.3216
10.6145
10.8954
11.1581
11.3963
11.6042
11.7771
11.9114
12.0048
12.0571
12.0698
12.0461
11.9907
11.9096
11.8093
11.6964
11.5775
11.4584
11.3443
11.2394
11.1474
11.0713
6.34206
6.23576
6.15322
6.09112
6.04603
6.01479
5.99465
5.98333
5.979
5.98024
5.98596
5.99536
6.00787
6.02311
6.04084
6.06097
6.0835
6.10856
6.13634
6.16716
6.20143
6.23969
6.28259
6.33093
6.38563
6.44778
6.51864
6.59959
6.69216
6.79795
6.91866
7.05596
7.21146
7.38659
7.5825
7.79959
8.03862
8.29941
8.58089
8.88093
9.19635
9.52285
9.85507
10.1867
10.5106
10.8193
11.1051
11.3606
11.5791
11.7554
11.8856
11.9681
12.0035
11.9946
11.9463
11.8651
11.7586
11.6349
11.5019
11.367
11.2364
11.1157
11.0092
10.9206
6.05734
5.94897
5.86467
5.80094
5.75421
5.72114
5.69889
5.68506
5.67775
5.67546
5.67705
5.68164
5.68862
5.69753
5.70808
5.72008
5.73347
5.74828
5.76463
5.78275
5.80299
5.82583
5.85191
5.88201
5.91713
5.95847
6.00743
6.06566
6.13498
6.21742
6.31515
6.43039
6.56536
6.72218
6.90271
7.10824
7.34065
7.60076
7.88824
8.20156
8.53789
8.89302
9.26137
9.63609
10.0091
10.3717
10.7144
11.028
11.3036
11.5337
11.7124
11.8363
11.9045
11.9189
11.8842
11.8075
11.6975
11.5639
11.4164
11.2641
11.1151
10.9761
10.8527
10.7491
5.74532
5.63517
5.54926
5.48395
5.4355
5.40046
5.37584
5.35917
5.34844
5.34209
5.33891
5.33796
5.33853
5.3401
5.34228
5.34479
5.34746
5.3502
5.35303
5.35607
5.35957
5.36392
5.3697
5.37769
5.38893
5.40469
5.42656
5.45643
5.49649
5.5492
5.61726
5.70355
5.81102
5.94255
6.10083
6.28817
6.50736
6.76105
7.04985
7.37303
7.72835
8.11191
8.51808
8.93957
9.36752
9.79175
10.2012
10.5843
10.9298
11.2274
11.4687
11.6475
11.7609
11.8096
11.7974
11.7318
11.6225
11.481
11.3191
11.1482
10.9786
10.8189
10.6757
10.5546
5.40568
5.29403
5.20667
5.13982
5.08959
5.0524
5.02514
5.00525
4.99065
4.97967
4.97104
4.96373
4.95696
4.95009
4.94262
4.93416
4.92439
4.9131
4.90015
4.8855
4.86929
4.85178
4.83347
4.8151
4.79769
4.78262
4.77165
4.76692
4.77099
4.7868
4.81768
4.86722
4.93918
5.03737
5.16546
5.32674
5.52493
5.765
6.04891
6.37701
6.7479
7.15824
7.60261
8.07349
8.56129
9.05459
9.54047
10.0051
10.4344
10.8148
11.1346
11.3844
11.5585
11.6551
11.6771
11.6315
11.529
11.3829
11.2076
11.0175
10.8252
10.6418
10.476
10.3341
5.03823
4.92538
4.83673
4.76837
4.71628
4.67675
4.64658
4.62309
4.60412
4.58793
4.57314
4.55864
4.54353
4.52706
4.5086
4.48761
4.4636
4.43618
4.40503
4.36994
4.33086
4.28791
4.24144
4.19213
4.14099
4.08945
4.03942
3.99333
3.9541
3.92523
3.91067
3.91484
3.94241
3.99826
4.08717
4.21366
4.38195
4.59963
4.87081
5.19719
5.5785
6.01227
6.49356
7.01489
7.5662
8.13497
8.70652
9.26459
9.792
10.2717
10.6879
11.0271
11.2799
11.4414
11.5121
11.4982
11.4111
11.2657
11.0793
10.8696
10.6529
10.443
10.2511
10.0851
4.64295
4.5292
4.43942
4.36958
4.31554
4.2735
4.24012
4.21265
4.18883
4.16682
4.14515
4.1226
4.09815
4.07091
4.04009
4.00495
3.96484
3.91914
3.86731
3.80893
3.74371
3.67159
3.59276
3.50776
3.41757
3.32366
3.22808
3.1335
3.04327
2.96143
2.89265
2.8422
2.8158
2.81946
2.85926
2.94105
3.07012
3.25524
3.50428
3.82058
4.20532
4.6572
5.17214
5.74304
6.35967
7.00869
7.67387
8.33654
8.97635
9.57227
10.1039
10.5531
10.9054
11.1516
11.2891
11.322
11.2615
11.1243
10.9306
10.7021
10.4594
10.2202
9.99861
9.80476
4.21997
4.10561
4.01485
3.94357
3.88751
3.84277
3.80591
3.77409
3.74494
3.71653
3.68728
3.65585
3.62107
3.5819
3.53735
3.48649
3.42843
3.36231
3.28732
3.20279
3.10816
3.00313
2.88769
2.76222
2.62762
2.48535
2.3376
2.18728
2.03816
1.89484
1.76274
1.64806
1.55763
1.49872
1.47882
1.50529
1.585
1.72664
1.94268
2.23887
2.61815
3.08075
3.62382
4.24105
4.92246
5.65427
6.41901
7.19585
7.96129
8.69016
9.35705
9.9381
10.413
10.7668
10.9923
11.0906
11.0714
10.9526
10.7575
10.5123
10.2427
9.97135
9.71622
9.49022
3.76957
3.6549
3.56331
3.49062
3.43248
3.38488
3.34429
3.30778
3.27286
3.23752
3.20005
3.15895
3.11292
3.06071
3.00115
2.93306
2.85528
2.76667
2.66615
2.55271
2.42552
2.28396
2.1278
1.9572
1.77295
1.57648
1.37007
1.15687
0.94105
0.727786
0.523279
0.334693
0.170024
0.0379071
-0.0526535
-0.0926254
-0.0733581
0.0140186
0.185013
0.449576
0.812719
1.27656
1.83985
2.49755
3.2404
4.0547
4.9222
5.82033
6.72264
7.59987
8.42129
9.15671
9.77884
10.2659
10.6041
10.7898
10.8303
10.7434
10.5553
10.297
10.0005
9.69436
9.40171
9.1389
3.29221
3.1775
3.08523
3.01117
2.9509
2.90031
2.85579
2.81429
2.77325
2.73051
2.68424
2.6328
2.5747
2.50849
2.43275
2.34606
2.24696
2.13401
2.00577
1.86089
1.69821
1.51678
1.31607
1.09601
0.857213
0.60106
0.329877
0.0470446
-0.242898
-0.534196
-0.819864
-1.09175
-1.34064
-1.55648
-1.72866
-1.84636
-1.89901
-1.87664
-1.7631
-1.54289
-1.20812
-0.754498
-0.18125
0.508287
1.30615
2.19929
3.16934
4.19251
5.23996
6.27855
7.27222
8.18402
8.97881
9.62639
10.1049
10.4039
10.5262
10.4883
10.3184
10.0529
9.73052
9.38744
9.05314
8.74849
2.78849
2.67398
2.58118
2.5058
2.44336
2.3897
2.3411
2.29442
2.24697
2.1965
2.14099
2.07867
2.00784
1.92682
1.83396
1.72753
1.60577
1.46686
1.30903
1.13054
0.929829
0.705611
0.456996
0.183654
-0.114021
-0.434741
-0.776156
-1.13471
-1.50549
-1.8822
-2.25708
-2.62098
-2.96345
-3.27301
-3.53736
-3.74383
-3.87986
-3.93353
-3.88908
-3.72663
-3.43367
-3.00339
-2.43265
-1.72261
-0.879388
0.0853171
1.15372
2.30162
3.49848
4.70787
5.88867
6.99706
7.98934
8.82566
9.47424
9.91554
10.1456
10.1777
10.0409
9.77638
9.43078
9.04918
8.66911
8.31718
2.25914
2.14505
2.05183
1.97519
1.91061
1.85384
1.8011
1.74913
1.69514
1.63672
1.57173
1.49818
1.41417
1.31781
1.20713
1.08013
0.934673
0.7686
0.57972
0.365898
0.125159
-0.144193
-0.443415
-0.773154
-1.13326
-1.52258
-1.93879
-2.37817
-2.8355
-3.30395
-3.77503
-4.23859
-4.68299
-5.09528
-5.46148
-5.76704
-5.9973
-6.13809
-6.17363
-6.082
-5.845
-5.45245
-4.89852
-4.18177
-3.30594
-2.2807
-1.12241
0.145256
1.49098
2.87594
4.25462
5.57655
6.7892
7.84205
8.69159
9.30684
9.67435
9.80141
9.71617
9.46389
9.09959
8.67878
8.24891
7.84392
1.70503
1.5915
1.49797
1.42014
1.35347
1.29365
1.23681
1.17959
1.11907
1.0527
0.978159
0.893284
0.795944
0.683982
0.555156
0.407112
0.237379
0.0433906
-0.177459
-0.427739
-0.709866
-1.02596
-1.37769
-1.76605
-2.19116
-2.65206
-3.14645
-3.67054
-4.21883
-4.784
-5.35684
-5.9263
-6.47955
-7.00222
-7.47867
-7.89247
-8.22684
-8.46533
-8.59134
-8.58201
-8.41518
-8.0754
-7.55389
-6.84627
-5.95337
-4.88217
-3.64675
-2.26926
-0.780616
0.779119
2.36106
3.90884
5.36125
6.65643
7.73766
8.5601
9.09772
9.3487
9.33749
9.11207
8.73588
8.27631
7.79288
7.32872
1.12709
1.01424
0.920462
0.841523
0.772867
0.710128
0.649359
0.587082
0.52025
0.446148
0.362286
0.266283
0.155777
0.0283398
-0.118574
-0.287658
-0.481759
-0.703849
-0.956969
-1.24414
-1.56824
-1.93183
-2.33702
-2.78516
-3.27671
-3.81089
-4.38553
-4.99675
-5.63884
-6.30405
-6.98254
-7.66239
-8.32965
-8.96861
-9.56204
-10.0917
-10.5387
-10.8843
-11.1103
-11.1935
-11.1098
-10.838
-10.3652
-9.68393
-8.79172
-7.69225
-6.39651
-4.92404
-3.30409
-1.57655
0.207752
1.98772
3.69418
5.25391
6.59584
7.65903
8.40164
8.80898
8.89835
8.71806
8.33946
7.84305
7.3027
6.77304
0.526325
0.414161
0.320187
0.240232
0.169753
0.10434
0.0399616
-0.0269781
-0.099673
-0.181007
-0.273666
-0.380249
-0.503367
-0.645727
-0.81019
-0.999797
-1.21778
-1.46752
-1.75251
-2.07622
-2.442
-2.85289
-3.31142
-3.81935
-4.37747
-4.98526
-5.64067
-6.33981
-7.0768
-7.84355
-8.62964
-9.42237
-10.2068
-10.9659
-11.681
-12.3321
-12.8985
-13.359
-13.6935
-13.8786
-13.8887
-13.6991
-13.2913
-12.6543
-11.782
-10.6744
-9.33854
-7.79044
-6.05634
-4.17435
-2.19554
-0.184031
1.78434
3.62558
5.25377
6.59004
7.57353
8.17255
8.39292
8.27994
7.91145
7.38189
6.78189
6.18021
-0.0962438
-0.207805
-0.301983
-0.38285
-0.454922
-0.522642
-0.590131
-0.661116
-0.73895
-0.826705
-0.927274
-1.04349
-1.17823
-1.33448
-1.51542
-1.72446
-1.9652
-2.24144
-2.55713
-2.91618
-3.32243
-3.77938
-4.29
-4.85648
-5.47995
-6.16017
-6.89524
-7.68135
-8.51249
-9.38028
-10.2738
-11.1798
-12.0823
-12.9632
-13.8025
-14.5786
-15.2688
-15.8502
-16.3001
-16.5948
-16.7075
-16.6124
-16.2851
-15.71
-14.8775
-13.7833
-12.4302
-10.8296
-9.00353
-6.98662
-4.82823
-2.59345
-0.362867
1.77009
3.70496
5.34371
6.60358
7.4315
7.81676
7.79725
7.45474
6.89782
6.23626
5.55594
-0.739642
-0.8508
-0.945243
-1.02691
-1.10027
-1.16979
-1.23969
-1.31384
-1.39578
-1.48878
-1.59597
-1.72044
-1.86531
-2.03389
-2.22968
-2.45642
-2.71812
-3.01899
-3.36339
-3.75572
-4.20025
-4.70095
-5.26125
-5.88375
-6.56994
-7.31989
-8.13189
-9.00222
-9.92484
-10.8912
-11.8899
-12.9072
-13.9264
-14.9284
-15.8919
-16.794
-17.6104
-18.3162
-18.8868
-19.2971
-19.5199
-19.5283
-19.2953
-18.799
-18.0257
-16.9671
-15.6211
-13.9939
-12.1019
-9.97507
-7.65879
-5.21678
-2.73188
-0.304889
1.95035
3.91631
5.48603
6.58076
7.16767
7.27162
6.97458
6.39851
5.67451
4.90892
-1.40299
-1.51408
-1.60892
-1.69126
-1.76551
-1.83616
-1.90755
-1.9837
-2.06835
-2.16504
-2.27711
-2.40794
-2.56095
-2.73973
-2.94811
-3.1902
-3.47036
-3.79322
-4.16354
-4.58617
-5.06583
-5.60693
-6.21335
-6.88808
-7.63299
-8.44846
-9.33303
-10.2831
-11.2926
-12.353
-13.4526
-14.5771
-15.7092
-16.8292
-17.9146
-18.9414
-19.8838
-20.7153
-21.4093
-21.9395
-22.2779
-22.3969
-22.2688
-21.8663
-21.1706
-20.1691
-18.8548
-17.2282
-15.2994
-13.0919
-10.6454
-8.01945
-5.29648
-2.58177
-0.000419143
2.31123
4.22057
5.61931
6.44656
6.70756
6.47923
5.89497
5.10891
4.2515
-2.08555
-2.19709
-2.29253
-2.37543
-2.45008
-2.52102
-2.59269
-2.66933
-2.75493
-2.85328
-2.96802
-3.1028
-3.26137
-3.44763
-3.66574
-3.92013
-4.21556
-4.55701
-4.94966
-5.39877
-5.90947
-6.48662
-7.13449
-7.85648
-8.65482
-9.53021
-10.4815
-11.5051
-12.5953
-13.7432
-14.9373
-16.1628
-17.402
-18.6345
-19.8372
-20.9848
-22.0506
-23.0067
-23.8247
-24.4767
-24.9342
-25.169
-25.1528
-24.8566
-24.2547
-23.3303
-22.0715
-20.4728
-18.5376
-16.2816
-13.737
-10.9569
-8.01988
-5.03249
-2.12803
0.540202
2.81366
4.55141
5.65859
6.11333
5.98076
5.40228
4.55606
3.60047
-2.78684
-2.89953
-2.99589
-3.0792
-3.15366
-3.22383
-3.2943
-3.36957
-3.4539
-3.55139
-3.66604
-3.80182
-3.96279
-4.15319
-4.3775
-4.64052
-4.94731
-5.30325
-5.71389
-6.18484
-6.72166
-7.32957
-8.01323
-8.77644
-9.62177
-10.5502
-11.5609
-12.6506
-13.8135
-15.0409
-16.3212
-17.6395
-18.9779
-20.3154
-21.6283
-22.8908
-24.075
-25.1519
-26.092
-26.8657
-27.4438
-27.7974
-27.8978
-27.7162
-27.2217
-26.392
-25.2105
-23.6658
-21.7543
-19.4832
-16.8755
-13.9757
-10.8555
-7.61867
-4.40302
-1.37573
1.27974
3.38782
4.81423
5.50192
5.49595
4.94053
4.0378
2.97796
-3.5067
-3.62146
-3.71916
-3.80276
-3.87631
-3.94441
-4.01186
-4.08345
-4.16381
-4.25742
-4.36865
-4.50185
-4.66145
-4.85202
-5.0784
-5.34569
-5.65932
-6.02498
-6.44855
-6.93602
-7.49326
-8.12587
-8.83884
-9.63632
-10.5212
-11.4948
-12.5565
-13.7033
-14.9297
-16.2271
-17.5839
-18.9852
-20.4129
-21.8459
-23.2602
-24.6293
-25.9248
-27.1167
-28.1745
-29.0674
-29.7652
-30.2385
-30.4583
-30.3954
-30.0186
-29.2979
-28.2125
-26.7455
-24.886
-22.6325
-19.9979
-17.0158
-13.7482
-10.2923
-6.78574
-3.40564
-0.3578
2.14701
3.93051
4.89216
5.04731
4.53577
3.58223
2.41241
-4.24536
-4.36341
-4.46301
-4.54675
-4.61851
-4.68298
-4.7452
-4.81034
-4.88348
-4.96957
-5.07344
-5.19988
-5.3537
-5.53986
-5.76354
-6.03018
-6.3455
-6.71551
-7.1464
-7.64444
-8.21582
-8.86642
-9.60154
-10.4256
-11.3419
-12.3519
-13.4553
-14.6495
-15.929
-17.2856
-18.7078
-20.1809
-21.6868
-23.2043
-24.7092
-26.1749
-27.5724
-28.8713
-30.0403
-31.0476
-31.8621
-32.4538
-32.7932
-32.8511
-32.5968
-31.9963
-31.0223
-29.653
-27.8707
-25.6653
-23.0388
-20.0127
-16.6364
-12.9969
-9.22698
-5.50854
-2.06586
0.856218
3.03214
4.30988
4.66419
4.2212
3.22487
1.93985
-5.00363
-5.12648
-5.22869
-5.31242
-5.38135
-5.44028
-5.4946
-5.54997
-5.61203
-5.68632
-5.77823
-5.89305
-6.03605
-6.21261
-6.42824
-6.68873
-7.0001
-7.3686
-7.80071
-8.30293
-8.8817
-9.54314
-10.2928
-11.1354
-12.0743
-13.1114
-14.2467
-15.4777
-16.7993
-18.2036
-19.6793
-21.2119
-22.7835
-24.3731
-25.9566
-27.5072
-28.9959
-30.392
-31.6636
-32.7784
-33.7043
-34.4108
-34.8679
-35.0462
-34.9154
-34.4416
-33.59
-32.3342
-30.6502
-28.5194
-25.9332
-22.8998
-19.4541
-15.6694
-11.6689
-7.63369
-3.80124
-0.447622
2.15277
3.78917
4.38409
4.03846
3.01009
1.60518
-5.78296
-5.91251
-6.01824
-6.10177
-6.16659
-6.21767
-6.26088
-6.30251
-6.34895
-6.40644
-6.48107
-6.57873
-6.70523
-6.86639
-7.0681
-7.31647
-7.61778
-7.97855
-8.40543
-8.90515
-9.4843
-10.1492
-10.9055
-11.7582
-12.7109
-13.7656
-14.9225
-16.1795
-17.5319
-18.9718
-20.4884
-22.0676
-23.6919
-25.3404
-26.9894
-28.6122
-30.1798
-31.6616
-33.0255
-34.2388
-35.2688
-36.0842
-36.6548
-36.9508
-36.9419
-36.5956
-35.8733
-34.7418
-33.172
-31.1374
-28.6188
-25.6111
-22.1333
-18.2421
-14.0466
-9.72125
-5.51054
-1.71714
1.33612
3.37378
4.25412
4.03921
2.99267
1.46393
-6.58566
-6.72428
-6.83465
-6.91772
-6.97685
-7.01728
-7.04551
-7.06869
-7.09414
-7.12904
-7.1803
-7.25455
-7.35821
-7.4976
-7.67903
-7.9089
-8.19376
-8.5403
-8.95535
-9.44574
-10.0182
-10.6791
-11.4343
-12.2887
-13.2462
-14.309
-15.4776
-16.7499
-18.1216
-19.5853
-21.1304
-22.7432
-24.4066
-26.1003
-27.8009
-29.4822
-31.1155
-32.6704
-34.1147
-35.4158
-36.5405
-37.457
-38.1345
-38.543
-38.652
-38.4295
-37.838
-36.8366
-35.3911
-33.4681
-31.0384
-28.0836
-24.6064
-20.6447
-16.2897
-11.7033
-7.13033
-2.89391
0.637174
3.11861
4.33269
4.28696
3.23984
1.58416
-7.4151
-7.56573
-7.68207
-7.76436
-7.81581
-7.84212
-7.85068
-7.84979
-7.84796
-7.85355
-7.87451
-7.91836
-7.99221
-8.10295
-8.25731
-8.46201
-8.7238
-9.04953
-9.44611
-9.92044
-10.4793
-11.129
-11.8756
-12.724
-13.6782
-14.7404
-15.9113
-17.1891
-18.5696
-20.0457
-21.6073
-23.241
-24.9304
-26.6555
-28.3936
-30.119
-31.8036
-33.4175
-34.9289
-36.3052
-37.5134
-38.5209
-39.2967
-39.8098
-40.0298
-39.9247
-39.4592
-38.5882
-37.2711
-35.4681
-33.1412
-30.2593
-26.8084
-22.8066
-18.324
-13.505
-8.58753
-3.90798
0.123412
3.09147
4.6915
4.85926
3.83362
2.04898
-8.27601
-8.4423
-8.56622
-8.6472
-8.68842
-8.6963
-8.67948
-8.64777
-8.61128
-8.57982
-8.56263
-8.56828
-8.60472
-8.67944
-8.79962
-8.97227
-9.20432
-9.50272
-9.87439
-10.3262
-10.865
-11.4971
-12.2282
-13.0636
-14.0069
-15.0607
-16.2255
-17.4997
-18.8793
-20.3575
-21.9245
-23.5674
-25.2702
-27.0136
-28.7754
-30.5308
-32.2524
-33.9107
-35.4748
-36.9125
-38.191
-39.2775
-40.1404
-40.7483
-41.0696
-41.0725
-40.7222
-39.9761
-38.7848
-37.103
-34.8846
-32.0864
-28.6786
-24.6586
-20.0735
-15.0457
-9.79982
-4.67738
-0.123833
3.37505
5.418
5.85046
4.87379
2.95954
-9.17485
-9.36133
-9.49471
-9.57355
-9.60122
-9.58523
-9.53598
-9.46535
-9.38547
-9.30803
-9.24382
-9.20267
-9.19347
-9.22439
-9.30304
-9.4367
-9.63243
-9.89719
-10.2379
-10.6613
-11.1741
-11.7825
-12.4922
-13.3081
-14.2341
-15.2724
-16.4236
-17.6863
-19.0565
-20.5277
-22.0903
-23.7318
-25.4368
-27.1865
-28.9596
-30.7317
-32.4764
-34.165
-35.7672
-37.2517
-38.5862
-39.738
-40.675
-41.3652
-41.7763
-41.8751
-41.6265
-40.9904
-39.9147
-38.3476
-36.2341
-33.5206
-30.1615
-26.1342
-21.4614
-16.2403
-10.676
-5.10752
-0.00778271
4.06936
6.61834
7.37507
6.48166
4.43892
-10.1203
-10.3327
-10.4777
-10.5531
-10.5627
-10.5159
-10.4254
-10.306
-10.1724
-10.0387
-9.91747
-9.82007
-9.75642
-9.73539
-9.76503
-9.85281
-10.0058
-10.231
-10.5351
-10.9247
-11.4062
-11.9858
-12.6688
-13.4599
-14.3629
-15.3798
-16.5113
-17.7558
-19.1094
-20.5658
-22.1157
-23.7469
-25.4444
-27.1902
-28.9633
-30.7404
-32.4956
-34.2012
-35.8278
-37.3446
-38.7203
-39.9224
-40.9188
-41.677
-42.1636
-42.3441
-42.1821
-41.637
-40.658
-39.1866
-37.1644
-34.5252
-31.2081
-27.1708
-22.4112
-16.9994
-11.1162
-5.09036
0.585757
5.2948
8.42124
9.57216
8.80481
6.63703
-11.1243
-11.3696
-11.5287
-11.5984
-11.5839
-11.4971
-11.3544
-11.1741
-10.9746
-10.7726
-10.5831
-10.4191
-10.2916
-10.2103
-10.1834
-10.2186
-10.3229
-10.503
-10.7654
-11.1165
-11.5624
-12.1087
-12.7607
-13.5227
-14.3982
-15.3892
-16.496
-17.717
-19.0484
-20.4838
-22.0143
-23.628
-25.3102
-27.0435
-28.8074
-30.5794
-32.3342
-34.0451
-35.6833
-37.219
-38.6213
-39.8587
-40.8987
-41.7086
-42.2542
-42.4995
-42.4059
-41.931
-41.0249
-39.6234
-37.6621
-35.0715
-31.7754
-27.7094
-22.8471
-17.2301
-11.0113
-4.50327
1.79086
7.19596
10.9829
12.611
12.0234
9.73705
-12.2026
-12.49
-12.6657
-12.7262
-12.6789
-12.54
-12.3309
-12.0749
-11.7946
-11.5105
-11.2402
-10.9983
-10.7972
-10.6469
-10.5562
-10.5324
-10.5824
-10.7127
-10.9292
-11.238
-11.6446
-12.1544
-12.7721
-13.5019
-14.3467
-15.3083
-16.3869
-17.5806
-18.8857
-20.2957
-21.8019
-23.3927
-25.0536
-26.7677
-28.5152
-30.2739
-32.0195
-33.7257
-35.3646
-36.907
-38.3226
-39.5802
-40.648
-41.4926
-42.0788
-42.3692
-42.3228
-41.8944
-41.032
-39.6696
-37.7329
-35.1454
-31.8265
-27.6952
-22.6937
-16.8352
-10.2429
-3.20739
3.76455
9.94642
14.4934
16.6988
16.3583
13.964
-13.3771
-13.7182
-13.9129
-13.9583
-13.866
-13.6586
-13.3647
-13.0143
-12.6357
-12.2534
-11.888
-11.5561
-11.271
-11.0433
-10.8815
-10.793
-10.7839
-10.8603
-11.0276
-11.2911
-11.656
-12.127
-12.7085
-13.404
-14.2162
-15.1465
-16.1947
-17.3589
-18.6351
-20.0169
-21.4957
-23.0599
-24.6955
-26.3859
-28.1116
-29.8511
-31.5805
-33.2742
-34.9046
-36.4432
-37.8601
-39.1244
-40.2043
-41.0662
-41.6738
-41.9876
-41.9643
-41.5549
-40.7033
-39.342
-37.3865
-34.7505
-31.3431
-27.076
-21.8755
-15.7133
-8.68173
-1.04586
6.69026
13.7547
19.1851
22.0905
22.0831
19.5969
-14.6783
-15.0879
-15.3032
-15.3237
-15.1685
-14.8701
-14.4674
-13.9991
-13.5006
-13.0013
-12.525
-12.0901
-11.7105
-11.3969
-11.1577
-10.9992
-10.9271
-10.9466
-11.0622
-11.2788
-11.6006
-12.0318
-12.5762
-13.2367
-14.0156
-14.9138
-15.931
-17.0648
-18.3112
-19.6637
-21.1136
-22.6495
-24.2576
-25.9215
-27.6222
-29.3384
-31.0468
-32.722
-34.3369
-35.8632
-37.271
-38.5296
-39.607
-40.4692
-41.0784
-41.393
-41.3661
-40.9448
-40.0675
-38.6615
-36.6358
-33.8899
-30.32
-25.8239
-20.3173
-13.7578
-6.18732
2.15777
10.7813
18.8707
25.3432
29.1036
29.5398
26.9855
-16.1493
-16.6465
-16.8818
-16.8612
-16.6165
-16.1956
-15.6518
-15.0358
-14.3913
-13.7533
-13.1485
-12.5968
-12.1121
-11.7048
-11.3822
-11.1497
-11.0117
-10.9723
-11.0353
-11.2043
-11.4828
-11.8744
-12.3819
-13.008
-13.7542
-14.6211
-15.6079
-16.712
-17.929
-19.2525
-20.6736
-22.1811
-23.7611
-25.3976
-27.0717
-28.7625
-30.4467
-32.0994
-33.6935
-35.2007
-36.5909
-37.833
-38.8943
-39.7404
-40.3319
-40.6239
-40.5655
-40.0984
-39.1544
-37.6529
-35.4963
-32.5679
-28.7483
-23.9175
-17.9731
-10.8596
-2.60858
6.59966
16.2832
25.5925
33.3186
38.1367
39.1633
36.5772
-17.8532
-18.4624
-18.7123
-18.6228
-18.2482
-17.6599
-16.9319
-16.1299
-15.3077
-14.5057
-13.7532
-13.0703
-12.4703
-11.9622
-11.5515
-11.2421
-11.0367
-10.938
-10.9484
-11.0704
-11.3069
-11.6601
-12.1326
-12.7259
-13.4413
-14.2788
-15.237
-16.3133
-17.5028
-18.7989
-20.1927
-21.6729
-23.2258
-24.8353
-26.4828
-28.1474
-29.8061
-31.4337
-33.0033
-34.4861
-35.8517
-37.068
-38.1011
-38.9152
-39.47
-39.7161
-39.5973
-39.0487
-37.9937
-36.3417
-33.9842
-30.79
-26.6193
-21.3308
-14.7988
-6.94566
2.2105
12.4922
23.4719
34.2697
43.5414
49.6961
51.5173
48.9579
-19.885
-20.6363
-20.8846
-20.6788
-20.1116
-19.2914
-18.3204
-17.2834
-16.2448
-15.25
-14.329
-13.5006
-12.776
-12.1612
-11.6594
-11.2718
-10.9992
-10.8421
-10.8016
-10.879
-11.0758
-11.3935
-11.8336
-12.3972
-13.0848
-13.8959
-14.8287
-15.88
-17.0449
-18.3165
-19.6856
-21.1409
-22.6686
-24.2527
-25.8746
-27.5134
-29.1461
-30.7473
-32.2898
-33.7442
-35.0792
-36.2616
-37.2557
-38.0232
-38.5222
-38.6994
-38.4913
-37.8243
-36.6116
-34.7498
-32.116
-28.563
-23.9266
-18.0401
-10.7492
-1.94623
8.37682
20.0527
32.6439
45.2993
56.5309
64.428
67.3481
64.9201
-22.3928
-23.3211
-23.5285
-23.1232
-22.2649
-21.1182
-19.8242
-18.4896
-17.1887
-15.9687
-14.8578
-13.8706
-13.0137
-12.2888
-11.695
-11.2303
-10.8924
-10.68
-10.5922
-10.6287
-10.7897
-11.076
-11.488
-12.0261
-12.6901
-13.4789
-14.3903
-15.4207
-16.5648
-17.8154
-19.1632
-20.5967
-22.102
-23.6631
-25.2611
-26.8753
-28.4823
-30.0564
-31.5699
-32.9926
-34.2921
-35.4332
-36.3782
-37.0858
-37.5103
-37.5959
-37.2696
-36.447
-35.0287
-32.8959
-29.9074
-25.8962
-20.6707
-14.0334
-5.79412
4.194
15.9786
29.4241