# vtk DataFile Version 2.0
Lid-driven cavity
ASCII
DATASET STRUCTURED_POINTS
DIMENSIONS 64 64 1
ORIGIN 0.0078125 0.0078125 0
SPACING 0.015625 0.015625 1
POINT_DATA 4096
SCALARS pressure double 1
LOOKUP_TABLE default
-0.325699
-0.328194
-0.331202
-0.333224
-0.333413
-0.331337
-0.326807
-0.319764
-0.310216
-0.298205
-0.283786
-0.26702
-0.247967
-0.226688
-0.203243
-0.177691
-0.150096
-0.120521
-0.0890339
-0.055706
-0.020613
0.0161648
0.054542
0.0944281
0.135727
0.178338
0.222153
0.26706
0.312941
0.359671
0.407122
0.455158
0.503641
0.552426
0.601366
0.650309
0.699097
0.747569
0.79556
0.842902
0.889426
0.93496
0.979334
1.02238
1.06392
1.1038
1.14184
1.1779
1.21181
1.24342
1.2726
1.29921
1.32312
1.34422
1.3624
1.37756
1.38965
1.39862
1.40449
1.40737
1.40752
1.40547
1.40221
1.39943
-0.323204
-0.325707
-0.327914
-0.329016
-0.328424
-0.325774
-0.320862
-0.313594
-0.303941
-0.291913
-0.277542
-0.260869
-0.241943
-0.220817
-0.197546
-0.172186
-0.144798
-0.115445
-0.0841937
-0.0511148
-0.0162837
0.0202196
0.05831
0.0978973
0.138886
0.181175
0.224657
0.269222
0.31475
0.361118
0.408199
0.455858
0.503955
0.552349
0.600893
0.649436
0.697821
0.745889
0.793475
0.840413
0.886535
0.931672
0.975654
1.01831
1.05948
1.09899
1.13668
1.1724
1.20599
1.23731
1.26622
1.29259
1.3163
1.33725
1.35534
1.3705
1.3827
1.39192
1.39823
1.40176
1.40279
1.40178
1.39943
1.39665
-0.320183
-0.323518
-0.325741
-0.326517
-0.325519
-0.322502
-0.317307
-0.309847
-0.300082
-0.288007
-0.273641
-0.257012
-0.238161
-0.217133
-0.193978
-0.168749
-0.141504
-0.112305
-0.081218
-0.0483118
-0.0136617
0.0226529
0.0605475
0.0999322
0.140712
0.182786
0.226049
0.270388
0.315687
0.361823
0.408667
0.456087
0.503943
0.552093
0.600392
0.648691
0.696833
0.744658
0.792004
0.838704
0.884592
0.929498
0.973254
1.01569
1.05665
1.09595
1.13345
1.16898
1.20239
1.23355
1.26231
1.28856
1.31218
1.33306
1.35114
1.36634
1.37865
1.38808
1.39469
1.39862
1.40009
1.39943
1.39706
1.39337
-0.318139
-0.32245
-0.325038
-0.325829
-0.324685
-0.321475
-0.316098
-0.308491
-0.298624
-0.286489
-0.272098
-0.255475
-0.236652
-0.21567
-0.192574
-0.167416
-0.140251
-0.111138
-0.0801411
-0.0473302
-0.0127788
0.0234343
0.0612253
0.100505
0.141179
0.183146
0.226302
0.270535
0.315729
0.361761
0.408503
0.455822
0.50358
0.551633
0.599839
0.648047
0.696104
0.743847
0.791115
0.83774
0.883557
0.928396
0.972089
1.01447
1.05536
1.09462
1.13206
1.16755
1.20093
1.23205
1.26079
1.28702
1.31064
1.33154
1.34966
1.36494
1.37736
1.38694
1.39374
1.39785
1.39946
1.39877
1.39599
1.39125
-0.317948
-0.323126
-0.326173
-0.327141
-0.326007
-0.322723
-0.317243
-0.309534
-0.29958
-0.287378
-0.272941
-0.256288
-0.237451
-0.216466
-0.193376
-0.168228
-0.141077
-0.11198
-0.0810009
-0.0482064
-0.0136698
0.0225307
0.060312
0.0995855
0.140257
0.182228
0.225391
0.269638
0.314851
0.360908
0.407682
0.455039
0.502842
0.550947
0.599209
0.647483
0.69561
0.74343
0.790779
0.837491
0.883398
0.928331
0.972119
1.0146
1.05559
1.09494
1.13248
1.16807
1.20153
1.23275
1.26158
1.2879
1.3116
1.3326
1.35081
1.3662
1.37873
1.38842
1.39532
1.39949
1.40106
1.40015
1.39686
1.3912
-0.32009
-0.325962
-0.329448
-0.330647
-0.3296
-0.326315
-0.320786
-0.313007
-0.302978
-0.290704
-0.2762
-0.259487
-0.240596
-0.21956
-0.196421
-0.171225
-0.144023
-0.114872
-0.0838337
-0.050975
-0.0163678
0.0199107
0.057778
0.0971461
0.137922
0.180005
0.223293
0.267673
0.313031
0.359244
0.406185
0.45372
0.501711
0.550014
0.598486
0.646977
0.695331
0.743385
0.790975
0.837933
0.88409
0.929275
0.973317
1.01604
1.05729
1.09688
1.13467
1.17048
1.20417
1.23559
1.26462
1.29113
1.31501
1.33617
1.35453
1.37005
1.3827
1.39248
1.39942
1.40358
1.40502
1.40383
1.40006
1.39368
-0.32482
-0.331226
-0.335087
-0.336517
-0.335587
-0.332336
-0.326788
-0.318958
-0.308857
-0.296502
-0.281912
-0.265109
-0.246124
-0.22499
-0.201748
-0.176442
-0.149123
-0.119847
-0.0886731
-0.0556683
-0.0209033
0.0155454
0.0535959
0.0931609
0.134147
0.176457
0.219985
0.264622
0.310251
0.356751
0.403994
0.451847
0.500171
0.548821
0.597653
0.646516
0.695252
0.743698
0.791687
0.839051
0.885617
0.931212
0.975663
1.0188
1.06044
1.10043
1.13859
1.17476
1.2088
1.24056
1.26989
1.29668
1.32082
1.34221
1.36078
1.37647
1.38926
1.39912
1.40609
1.41019
1.41149
1.41002
1.40583
1.3989
-0.332269
-0.339083
-0.343253
-0.34489
-0.344077
-0.340872
-0.335317
-0.32744
-0.317265
-0.304816
-0.290116
-0.273191
-0.254072
-0.232792
-0.209392
-0.183916
-0.156414
-0.126939
-0.0955518
-0.0623174
-0.0273061
0.00940638
0.0477388
0.0876044
0.128911
0.17156
0.215447
0.260463
0.306492
0.353411
0.401093
0.449405
0.498207
0.547353
0.596696
0.646085
0.69536
0.744355
0.792903
0.840831
0.887965
0.934129
0.979146
1.02284
1.06503
1.10555
1.14424
1.18091
1.21542
1.24762
1.27737
1.30455
1.32903
1.35072
1.36955
1.38545
1.39839
1.40835
1.41535
1.4194
1.42055
1.41883
1.4143
1.40694
-0.342508
-0.349642
-0.354064
-0.355877
-0.355168
-0.352006
-0.346441
-0.338512
-0.328253
-0.315692
-0.300856
-0.283774
-0.264479
-0.243005
-0.219392
-0.193684
-0.165929
-0.136183
-0.104503
-0.0709547
-0.0356074
0.00146373
0.040178
0.0804492
0.122185
0.165288
0.209654
0.255174
0.301731
0.349203
0.397462
0.446375
0.4958
0.545591
0.595598
0.645669
0.69564
0.745345
0.794611
0.843264
0.891127
0.938019
0.983759
1.02817
1.07106
1.11227
1.15161
1.18892
1.22403
1.2568
1.28707
1.31472
1.33963
1.3617
1.38085
1.397
1.41014
1.42022
1.42725
1.43126
1.43228
1.43035
1.42553
1.41784
-0.35558
-0.362975
-0.367606
-0.369567
-0.368946
-0.365814
-0.360229
-0.352237
-0.341876
-0.329179
-0.314177
-0.296903
-0.277388
-0.255669
-0.231786
-0.205783
-0.177708
-0.147615
-0.115563
-0.0816156
-0.0458418
-0.00831621
0.0308808
0.0716634
0.11394
0.157613
0.202578
0.248726
0.295941
0.344101
0.393076
0.442732
0.492928
0.543514
0.594341
0.64525
0.696076
0.74665
0.796797
0.846339
0.895093
0.942875
0.989499
1.03478
1.07853
1.12057
1.16072
1.19879
1.23464
1.26809
1.299
1.32722
1.35265
1.37517
1.3947
1.41117
1.42453
1.43476
1.44186
1.44584
1.44675
1.44465
1.43958
1.4316
-0.371517
-0.37914
-0.383951
-0.386038
-0.385486
-0.382369
-0.376749
-0.368675
-0.35819
-0.345331
-0.330132
-0.312625
-0.292845
-0.27083
-0.24662
-0.220258
-0.191793
-0.161279
-0.128774
-0.0943408
-0.0580491
-0.0199727
0.0198085
0.0612091
0.104138
0.148497
0.194183
0.241086
0.28909
0.338072
0.387903
0.438446
0.48956
0.541095
0.592895
0.644801
0.696644
0.748251
0.799444
0.850039
0.899851
0.948688
0.996361
1.04268
1.08744
1.13047
1.17156
1.21056
1.24726
1.28152
1.31318
1.34209
1.36813
1.39118
1.41115
1.42798
1.44162
1.45203
1.45922
1.46321
1.46403
1.46177
1.45647
1.44823
-0.390354
-0.398189
-0.403163
-0.405359
-0.40486
-0.401742
-0.396068
-0.387892
-0.377259
-0.364207
-0.348774
-0.330994
-0.310903
-0.288539
-0.263942
-0.237157
-0.208232
-0.177221
-0.144182
-0.109177
-0.072276
-0.0335521
0.00691524
0.0490407
0.0927332
0.137895
0.184424
0.232209
0.281133
0.331074
0.381901
0.433478
0.48566
0.538296
0.591228
0.644291
0.697314
0.750121
0.802528
0.854347
0.905386
0.955449
1.00434
1.05185
1.0978
1.14197
1.18417
1.22422
1.26193
1.29713
1.32966
1.35936
1.3861
1.40976
1.43026
1.44751
1.46146
1.4721
1.47941
1.48342
1.48418
1.48176
1.47626
1.46775
-0.412129
-0.420175
-0.425304
-0.427598
-0.427139
-0.424003
-0.418257
-0.409955
-0.399146
-0.385871
-0.370167
-0.352071
-0.33162
-0.308853
-0.28381
-0.256536
-0.227081
-0.195497
-0.161842
-0.126179
-0.088577
-0.0491085
-0.00785301
0.0351045
0.0796732
0.125756
0.173249
0.222042
0.272019
0.323056
0.375021
0.427777
0.481179
0.535072
0.589295
0.643679
0.69805
0.752226
0.806019
0.859236
0.911679
0.963143
1.01342
1.06231
1.1096
1.15508
1.19856
1.23982
1.27868
1.31495
1.34847
1.37907
1.40662
1.43099
1.45208
1.46981
1.48414
1.49503
1.50249
1.50654
1.50726
1.5047
1.49898
1.4902
-0.436892
-0.445155
-0.450439
-0.452824
-0.452394
-0.449226
-0.443387
-0.434937
-0.423923
-0.41039
-0.394377
-0.375921
-0.355061
-0.331836
-0.306287
-0.27846
-0.248403
-0.21617
-0.181818
-0.14541
-0.107015
-0.0667047
-0.024559
0.0193377
0.0648947
0.112015
0.160595
0.210525
0.261687
0.313957
0.367203
0.421286
0.47606
0.531367
0.587044
0.642916
0.698805
0.754524
0.809881
0.864676
0.918702
0.97175
1.0236
1.07405
1.12286
1.16983
1.21473
1.25737
1.29753
1.33502
1.36966
1.40129
1.42975
1.45492
1.47668
1.49497
1.50972
1.52091
1.52855
1.53267
1.53334
1.53065
1.52471
1.51563
-0.464702
-0.473194
-0.478638
-0.481112
-0.480702
-0.477487
-0.471537
-0.462913
-0.451666
-0.437841
-0.421479
-0.402619
-0.381299
-0.357561
-0.331445
-0.302998
-0.272269
-0.23931
-0.20418
-0.166941
-0.12766
-0.0864122
-0.0432745
0.00166819
0.0483255
0.0966005
0.14639
0.197583
0.250063
0.303705
0.358376
0.413936
0.470235
0.527117
0.584411
0.641941
0.699522
0.756965
0.814068
0.870626
0.926425
0.981244
1.03486
1.08705
1.13757
1.18621
1.23272
1.2769
1.31852
1.35739
1.39329
1.42607
1.45556
1.48163
1.50415
1.52306
1.53829
1.54983
1.55767
1.56188
1.56251
1.55968
1.5535
1.5441
-0.495626
-0.504366
-0.509978
-0.512542
-0.512145
-0.508871
-0.502791
-0.493969
-0.482458
-0.468306
-0.451555
-0.432244
-0.410415
-0.386107
-0.359364
-0.330231
-0.298758
-0.264997
-0.229007
-0.19085
-0.150594
-0.108312
-0.0640805
-0.0179854
0.0298837
0.0794303
0.130551
0.183136
0.237067
0.292219
0.348459
0.405645
0.463626
0.522244
0.581324
0.640685
0.700138
0.759486
0.818524
0.877038
0.934804
0.991594
1.04717
1.1013
1.15373
1.20423
1.25254
1.29845
1.34171
1.3821
1.41943
1.45349
1.48413
1.5112
1.53458
1.55418
1.56995
1.58188
1.58996
1.59426
1.59487
1.59188
1.58545
1.57569
-0.529747
-0.538755
-0.544545
-0.547201
-0.546813
-0.543467
-0.537239
-0.528195
-0.516391
-0.501876
-0.484694
-0.464888
-0.442497
-0.417564
-0.390132
-0.360246
-0.327958
-0.293319
-0.256389
-0.217228
-0.175905
-0.132492
-0.0870673
-0.039714
0.00947796
0.0604123
0.112986
0.167089
0.222604
0.279406
0.337359
0.396323
0.456144
0.51666
0.577697
0.639065
0.700573
0.762017
0.823185
0.883853
0.943791
1.00276
1.06051
1.11678
1.17133
1.22389
1.27421
1.32204
1.36712
1.40922
1.44812
1.48362
1.51555
1.54373
1.56806
1.58844
1.60481
1.61716
1.62552
1.62993
1.6305
1.62736
1.62064
1.61049
-0.567154
-0.576453
-0.582435
-0.585188
-0.584804
-0.581375
-0.574981
-0.56569
-0.553562
-0.538648
-0.520995
-0.500646
-0.477642
-0.452027
-0.423844
-0.393141
-0.359966
-0.324373
-0.286421
-0.246171
-0.203691
-0.159053
-0.112334
-0.0636179
-0.0129932
0.0394442
0.0935918
0.14934
0.206571
0.26516
0.324973
0.385865
0.447684
0.510266
0.573432
0.636988
0.700739
0.764473
0.827972
0.891003
0.953325
1.01469
1.07482
1.13347
1.19036
1.24521
1.29775
1.3477
1.3948
1.43879
1.47945
1.51655
1.54989
1.57932
1.6047
1.62594
1.64298
1.65581
1.66446
1.669
1.66954
1.66621
1.65918
1.6486
-0.607948
-0.617563
-0.623752
-0.626607
-0.626225
-0.622702
-0.616123
-0.606561
-0.594078
-0.57873
-0.560564
-0.539625
-0.515956
-0.489602
-0.460607
-0.429018
-0.394886
-0.358264
-0.31921
-0.277786
-0.23406
-0.188102
-0.13999
-0.0898071
-0.0376407
0.0164139
0.0722549
0.129773
0.188853
0.249367
0.311184
0.374157
0.438133
0.502947
0.568418
0.634347
0.700531
0.766756
0.832794
0.898404
0.963332
1.02732
1.09008
1.15133
1.2108
1.26817
1.32315
1.37545
1.42479
1.47089
1.51349
1.55235
1.58727
1.61808
1.64462
1.66681
1.68459
1.69794
1.70692
1.7116
1.7121
1.70857
1.7012
1.69014
-0.652242
-0.6622
-0.668612
-0.671574
-0.671192
-0.667564
-0.660783
-0.650925
-0.638057
-0.622237
-0.603516
-0.58194
-0.557554
-0.530404
-0.500534
-0.467994
-0.432833
-0.395106
-0.35487
-0.312188
-0.267126
-0.219756
-0.170154
-0.118401
-0.0645857
-0.00880132
0.0488513
0.108264
0.169321
0.231899
0.295862
0.361068
0.427362
0.494577
0.562529
0.631017
0.699832
0.768754
0.837546
0.905958
0.973726
1.04057
1.1062
1.17032
1.2326
1.29275
1.35043
1.40533
1.45714
1.50556
1.5503
1.59113
1.62779
1.66012
1.68795
1.71118
1.72977
1.7437
1.75303
1.75786
1.75831
1.75457
1.74682
1.73524
-0.70016
-0.710488
-0.717141
-0.720218
-0.719832
-0.71609
-0.709088
-0.69891
-0.685625
-0.669296
-0.649976
-0.627715
-0.602559
-0.574554
-0.543748
-0.510189
-0.473929
-0.435021
-0.393524
-0.349501
-0.303016
-0.254141
-0.202952
-0.149529
-0.0939589
-0.0363342
0.023246
0.0846752
0.147839
0.212614
0.278868
0.346457
0.415227
0.485011
0.555623
0.62686
0.698506
0.770334
0.842103
0.91355
0.9844
1.05436
1.12312
1.19036
1.25574
1.31893
1.37958
1.43734
1.49188
1.54286
1.58999
1.63297
1.67157
1.70557
1.73482
1.75921
1.77868
1.79324
1.80296
1.80793
1.80833
1.80434
1.79617
1.78402
-0.751836
-0.762564
-0.769475
-0.772675
-0.772285
-0.768418
-0.761177
-0.750651
-0.736918
-0.720042
-0.70008
-0.677084
-0.651104
-0.622187
-0.590381
-0.555736
-0.518305
-0.478142
-0.435305
-0.389856
-0.341862
-0.291392
-0.238521
-0.183329
-0.125901
-0.0663279
-0.00470658
0.058858
0.124254
0.191359
0.260043
0.330164
0.401568
0.474089
0.547541
0.621716
0.696396
0.771347
0.84632
0.921045
0.995231
1.06857
1.14073
1.21138
1.28015
1.34668
1.41059
1.4715
1.52904
1.58286
1.63261
1.67798
1.71871
1.75457
1.78538
1.81103
1.83148
1.84672
1.85685
1.86199
1.86232
1.85805
1.84942
1.83664
-0.807416
-0.818575
-0.825764
-0.829097
-0.8287
-0.824696
-0.817197
-0.806299
-0.792083
-0.77462
-0.753971
-0.730191
-0.703331
-0.673442
-0.640573
-0.604775
-0.566101
-0.524607
-0.480352
-0.433396
-0.383807
-0.331653
-0.277008
-0.21995
-0.160563
-0.098936
-0.0351634
0.0306526
0.098402
0.167966
0.239218
0.312016
0.38621
0.461634
0.538103
0.615408
0.693326
0.77162
0.850032
0.928282
1.00607
1.08307
1.15893
1.23329
1.30576
1.37594
1.44343
1.5078
1.56866
1.6256
1.67825
1.72627
1.76935
1.80725
1.83979
1.86683
1.88834
1.90433
1.9149
1.9202
1.92044
1.91587
1.90673
1.89326
-0.867059
-0.878683
-0.886171
-0.889644
-0.889239
-0.885088
-0.877311
-0.866012
-0.85128
-0.833189
-0.811806
-0.78719
-0.759395
-0.728472
-0.694475
-0.657455
-0.617467
-0.574567
-0.528814
-0.480271
-0.429002
-0.375076
-0.318566
-0.259549
-0.198105
-0.134322
-0.0682921
-0.000113209
0.0701077
0.142256
0.216206
0.291824
0.368959
0.447449
0.52711
0.607735
0.689097
0.770954
0.853043
0.935075
1.01674
1.09768
1.17755
1.25594
1.33245
1.40663
1.47805
1.54623
1.61075
1.67114
1.727
1.77793
1.82362
1.86378
1.89821
1.92678
1.94945
1.96624
1.97728
1.98275
1.98288
1.97796
1.96825
1.95403
-0.930937
-0.943062
-0.950871
-0.954494
-0.954079
-0.949769
-0.941693
-0.929964
-0.914678
-0.895917
-0.873752
-0.848246
-0.819456
-0.787439
-0.752247
-0.713935
-0.67256
-0.628178
-0.58085
-0.530637
-0.477606
-0.421822
-0.363359
-0.302291
-0.238697
-0.172661
-0.104271
-0.0336229
0.0391816
0.114032
0.190808
0.269379
0.349601
0.431314
0.514339
0.59847
0.683479
0.769122
0.85513
0.941207
1.02702
1.11223
1.19642
1.2792
1.3601
1.43865
1.51437
1.58675
1.65529
1.7195
1.77891
1.83308
1.88166
1.92432
1.96084
1.99109
2.01502
2.03268
2.04422
2.04985
2.04984
2.04451
2.03418
2.01913
-0.999237
-1.0119
-1.02005
-1.02384
-1.02341
-1.01893
-1.01053
-0.99834
-0.982462
-0.962985
-0.939987
-0.913534
-0.88369
-0.850512
-0.814057
-0.774383
-0.731546
-0.685606
-0.636624
-0.584662
-0.529785
-0.472061
-0.411559
-0.348352
-0.282517
-0.214135
-0.143289
-0.0700714
0.00542184
0.0830857
0.162806
0.244458
0.327905
0.412991
0.499543
0.587362
0.676217
0.765865
0.856034
0.946421
1.03669
1.12646
1.21533
1.30284
1.38852
1.47185
1.55229
1.62929
1.70228
1.77071
1.83405
1.89182
1.94359
1.98902
2.02785
2.05995
2.08526
2.10386
2.11592
2.1217
2.12152
2.11573
2.1047
2.08875
-1.07216
-1.0854
-1.09393
-1.09788
-1.09744
-1.09277
-1.08402
-1.07134
-1.05483
-1.03459
-1.0107
-0.983243
-0.95228
-0.917873
-0.880085
-0.838974
-0.794601
-0.747025
-0.69631
-0.642518
-0.585715
-0.525967
-0.463342
-0.397913
-0.329752
-0.258936
-0.185545
-0.109664
-0.0313853
0.0491946
0.131969
0.216819
0.303617
0.392217
0.482451
0.574128
0.667022
0.76089
0.85546
0.950423
1.04543
1.1401
1.234
1.32664
1.41751
1.50605
1.59167
1.67374
1.75164
1.82475
1.89246
1.95422
2.00955
2.05806
2.09946
2.13358
2.16041
2.18002
2.19263
2.19855
2.19814
2.19183
2.18002
2.16307
-1.14992
-1.16379
-1.17271
-1.17685
-1.17639
-1.17151
-1.1624
-1.14918
-1.13199
-1.11093
-1.0861
-1.05757
-1.02542
-0.989716
-0.950519
-0.907895
-0.861907
-0.812616
-0.760088
-0.704386
-0.645575
-0.583723
-0.518896
-0.451164
-0.380595
-0.307264
-0.231245
-0.152617
-0.0714647
0.012123
0.0980479
0.186203
0.276467
0.368707
0.462764
0.558458
0.655572
0.753865
0.853067
0.952869
1.05292
1.15282
1.25211
1.35028
1.44679
1.54101
1.6323
1.71996
1.80329
1.88159
1.95416
2.02038
2.07968
2.13162
2.17586
2.21224
2.24072
2.26142
2.2746
2.28063
2.27994
2.27302
2.26032
2.24228
-1.23276
-1.2473
-1.25665
-1.26098
-1.2605
-1.2554
-1.24588
-1.23209
-1.21417
-1.19224
-1.1664
-1.13673
-1.10332
-1.06624
-1.02556
-0.981341
-0.933655
-0.882568
-0.828144
-0.770451
-0.709554
-0.645518
-0.578411
-0.508298
-0.435247
-0.359326
-0.280604
-0.199154
-0.115051
-0.0283763
0.0607835
0.152332
0.246162
0.342151
0.440157
0.540009
0.641507
0.744414
0.848469
0.953365
1.05875
1.1642
1.26927
1.3734
1.476
1.57641
1.67391
1.76773
1.85707
1.94114
2.01913
2.09033
2.15408
2.20985
2.25728
2.29615
2.32645
2.34833
2.3621
2.3682
2.36716
2.35952
2.34584
2.32657
-1.32093
-1.3362
-1.346
-1.35054
-1.35003
-1.34469
-1.33473
-1.32032
-1.30162
-1.27875
-1.25183
-1.22095
-1.1862
-1.14766
-1.10541
-1.05951
-1.01005
-0.957076
-0.900674
-0.840906
-0.777841
-0.711544
-0.64208
-0.569515
-0.493911
-0.415333
-0.333842
-0.249505
-0.162388
-0.0725605
0.0199019
0.114917
0.212391
0.312219
0.414275
0.518406
0.624428
0.732119
0.841227
0.951454
1.06245
1.17379
1.285
1.39552
1.50471
1.61184
1.71614
1.81674
1.91274
2.00323
2.0873
2.16409
2.23284
2.29294
2.34393
2.38559
2.4179
2.44105
2.45543
2.46156
2.46005
2.45158
2.43676
2.41614
-1.41471
-1.43076
-1.44106
-1.44582
-1.44527
-1.43967
-1.42923
-1.41415
-1.3946
-1.37072
-1.34264
-1.31047
-1.27429
-1.23421
-1.19029
-1.14263
-1.09128
-1.03634
-0.977873
-0.915946
-0.850632
-0.781996
-0.710103
-0.635016
-0.556795
-0.475498
-0.391183
-0.303906
-0.213724
-0.120695
-0.0248803
0.0736524
0.174828
0.278559
0.384739
0.49324
0.603899
0.716514
0.830848
0.946618
1.06348
1.18103
1.29876
1.4161
1.53237
1.6468
1.75852
1.86658
1.96997
2.06763
2.15851
2.2416
2.31601
2.38099
2.43602
2.48082
2.51536
2.5399
2.55489
2.56098
2.55891
2.54944
2.53331
2.51116
-1.5144
-1.5313
-1.54213
-1.54712
-1.54653
-1.54063
-1.52967
-1.51386
-1.49339
-1.46843
-1.4391
-1.40554
-1.36784
-1.32611
-1.28043
-1.2309
-1.17758
-1.12057
-1.05994
-0.995771
-0.928123
-0.85707
-0.782676
-0.705001
-0.624104
-0.540036
-0.45285
-0.362593
-0.26931
-0.173048
-0.0738532
0.028225
0.133131
0.240799
0.351147
0.464073
0.579443
0.697083
0.816778
0.938268
1.06123
1.18526
1.30986
1.43445
1.55831
1.68062
1.80043
1.9167
2.02828
2.13395
2.23249
2.32272
2.40356
2.47412
2.53375
2.58211
2.61917
2.64523
2.66085
2.66682
2.66401
2.65336
2.63571
2.61181
-1.62033
-1.63816
-1.64957
-1.6548
-1.65416
-1.64792
-1.63638
-1.61977
-1.59831
-1.57216
-1.54149
-1.50644
-1.46711
-1.42362
-1.37607
-1.32456
-1.26916
-1.20998
-1.14709
-1.08058
-1.01051
-0.936963
-0.859996
-0.779671
-0.696042
-0.609159
-0.519065
-0.425799
-0.329397
-0.229891
-0.12731
-0.0216851
0.0869498
0.198554
0.313075
0.430439
0.550548
0.673265
0.798405
0.92574
1.05497
1.18572
1.31751
1.44974
1.58169
1.71247
1.84108
1.96636
2.087
2.20163
2.30882
2.40716
2.49536
2.57233
2.63726
2.68972
2.72965
2.75741
2.77369
2.77942
2.7757
2.7636
2.74417
2.71825
-1.73288
-1.75171
-1.76374
-1.76923
-1.76851
-1.7619
-1.74972
-1.73223
-1.70967
-1.68224
-1.65012
-1.61345
-1.57237
-1.527
-1.47745
-1.42384
-1.36625
-1.30478
-1.23953
-1.17057
-1.098
-1.02187
-0.942254
-0.859217
-0.772807
-0.68307
-0.590042
-0.493754
-0.394231
-0.291488
-0.18554
-0.0763976
0.0359307
0.151432
0.270083
0.391849
0.516669
0.644453
0.775058
0.908294
1.04391
1.18155
1.32078
1.461
1.60149
1.74133
1.87944
2.01455
2.14522
2.26987
2.38683
2.49444
2.59112
2.67553
2.74665
2.80389
2.84716
2.87686
2.89383
2.89922
2.89433
2.88048
2.85891
2.83061
-1.85242
-1.87236
-1.88506
-1.89082
-1.89
-1.88298
-1.87008
-1.85161
-1.82785
-1.79901
-1.7653
-1.72688
-1.68391
-1.63652
-1.58484
-1.52898
-1.46906
-1.40519
-1.33745
-1.26595
-1.19076
-1.11197
-1.02964
-0.943826
-0.854588
-0.761964
-0.665986
-0.566674
-0.464043
-0.358095
-0.248827
-0.136226
-0.0202772
0.0990361
0.221727
0.347799
0.477237
0.610002
0.746009
0.885118
1.02713
1.17175
1.31857
1.46705
1.61646
1.76588
1.91417
2.05997
2.20168
2.33751
2.46553
2.58376
2.69028
2.78342
2.86185
2.92478
2.97203
3.00403
3.02178
3.02668
3.02033
3.00434
2.98017
2.94903
-1.97942
-2.00056
-2.01399
-2.02003
-2.0191
-2.01158
-1.99788
-1.97833
-1.95323
-1.92284
-1.88739
-1.84707
-1.80204
-1.75247
-1.69849
-1.64024
-1.57785
-1.51142
-1.44107
-1.3669
-1.289
-1.20744
-1.12231
-1.03367
-0.941559
-0.846021
-0.747083
-0.644759
-0.539051
-0.42995
-0.317433
-0.201467
-0.082012
0.0409817
0.167563
0.29778
0.431667
0.569241
0.710486
0.855329
1.00363
1.15518
1.30964
1.4665
1.6251
1.78452
1.94361
2.10092
2.25471
2.40297
2.54349
2.67391
2.79191
2.89538
2.98259
3.05244
3.10456
3.1394
3.15811
3.16239
3.15422
3.13557
3.10822
3.07362
-2.11436
-2.13682
-2.15105
-2.15739
-2.15629
-2.14822
-2.1336
-2.11283
-2.08624
-2.05414
-2.01677
-1.97435
-1.92708
-1.87514
-1.81869
-1.75787
-1.69283
-1.62369
-1.55059
-1.47361
-1.39288
-1.30846
-1.22045
-1.12891
-1.03388
-0.9354
-0.8335
-0.728185
-0.619447
-0.507265
-0.391598
-0.272395
-0.149588
-0.0230968
0.107166
0.241292
0.379372
0.521485
0.667687
0.817991
0.97234
1.13061
1.29254
1.45775
1.62562
1.7953
1.96565
2.13518
2.30205
2.46404
2.61863
2.76306
2.89451
3.01031
3.10822
3.18665
3.24494
3.28343
3.30345
3.30703
3.29662
3.27467
3.24337
3.20449
-2.25779
-2.28172
-2.29681
-2.30346
-2.30216
-2.29343
-2.27776
-2.25561
-2.22735
-2.19333
-2.15383
-2.10911
-2.05938
-2.00486
-1.94572
-1.88213
-1.81425
-1.74222
-1.66619
-1.58626
-1.50256
-1.41517
-1.32419
-1.22967
-1.13167
-1.03023
-0.925375
-0.817099
-0.705391
-0.590218
-0.471527
-0.349245
-0.223283
-0.0935286
0.040142
0.177867
0.31979
0.466057
0.616803
0.772132
0.932095
1.09666
1.26571
1.43896
1.61593
1.79586
1.9777
2.15997
2.34077
2.51773
2.68804
2.8485
2.99574
3.12639
3.23748
3.32677
3.39308
3.43653
3.4585
3.46142
3.44832
3.42228
3.38604
3.34178
-2.41033
-2.43589
-2.45193
-2.45889
-2.45732
-2.44782
-2.43096
-2.40722
-2.37707
-2.3409
-2.29902
-2.25173
-2.1993
-2.14194
-2.07986
-2.01327
-1.94233
-1.86721
-1.78806
-1.70502
-1.6182
-1.52771
-1.43364
-1.33607
-1.23505
-1.13063
-1.02281
-0.91161
-0.797002
-0.678945
-0.557375
-0.432206
-0.303323
-0.170591
-0.0338498
0.107081
0.252399
0.402317
0.557046
0.71679
0.881716
1.05192
1.22742
1.40809
1.59362
1.78343
1.97659
2.17177
2.36708
2.56008
2.74772
2.92641
3.09212
3.24069
3.3682
3.47146
3.54848
3.59887
3.62395
3.62651
3.61029
3.57921
3.53675
3.48569
-2.57269
-2.60007
-2.61714
-2.62441
-2.62251
-2.6121
-2.59383
-2.56828
-2.53598
-2.49736
-2.45281
-2.40266
-2.34721
-2.28672
-2.22143
-2.15156
-2.07731
-1.99886
-1.91638
-1.83002
-1.73992
-1.64618
-1.54891
-1.4482
-1.34409
-1.23665
-1.12588
-1.01178
-0.894351
-0.773528
-0.649244
-0.5214
-0.389868
-0.254489
-0.115075
0.0285908
0.176756
0.329693
0.48769
0.651044
0.820041
0.994925
1.17587
1.36293
1.55603
1.75482
1.95863
2.16634
2.37625
2.58597
2.79236
2.99146
3.17864
3.34879
3.49683
3.61823
3.70979
3.77019
3.80036
3.80336
3.78372
3.74649
3.69622
3.6365
-2.74565
-2.77508
-2.7933
-2.80088
-2.79853
-2.78703
-2.76711
-2.73946
-2.70468
-2.66328
-2.6157
-2.56234
-2.50353
-2.43957
-2.37073
-2.29727
-2.21942
-2.13737
-2.05131
-1.96141
-1.86782
-1.77067
-1.67006
-1.56609
-1.45883
-1.34831
-1.23458
-1.11764
-0.997452
-0.873986
-0.747162
-0.616876
-0.482992
-0.345336
-0.203701
-0.0578413
0.0925283
0.24773
0.408118
0.574077
0.746002
0.924281
1.10926
1.30122
1.50032
1.70656
1.9196
2.13872
2.36257
2.58905
2.8151
3.03661
3.24837
3.44433
3.61795
3.763
3.87444
3.94941
3.98792
3.99299
3.97002
3.92547
3.86543
3.79469
-2.93016
-2.96189
-2.98138
-2.98925
-2.98633
-2.9735
-2.95164
-2.92154
-2.88388
-2.83929
-2.78826
-2.73126
-2.66866
-2.60083
-2.52807
-2.45066
-2.36886
-2.28289
-2.19297
-2.09928
-2.00199
-1.90123
-1.79712
-1.68977
-1.57924
-1.46561
-1.3489
-1.22912
-1.10626
-0.980265
-0.851078
-0.718592
-0.582668
-0.443132
-0.299768
-0.152314
-0.000464988
0.156135
0.317891
0.485251
0.658704
0.838764
1.02595
1.22075
1.42365
1.63499
1.85496
2.08337
2.31947
2.56174
2.80753
3.05286
3.29218
3.51852
3.72375
3.89944
4.03801
4.13417
4.18614
4.19631
4.1708
4.11785
4.04573
3.961
-3.12726
-3.16163
-3.18252
-3.19065
-3.18698
-3.17254
-3.14836
-3.11536
-3.07436
-3.02606
-2.97108
-2.90993
-2.84307
-2.77089
-2.69375
-2.61197
-2.52583
-2.4356
-2.34149
-2.24372
-2.14246
-2.03787
-1.93007
-1.81919
-1.70529
-1.58846
-1.46873
-1.34613
-1.22064
-1.09223
-0.960851
-0.8264
-0.688753
-0.547744
-0.403163
-0.254754
-0.102209
0.0548361
0.216806
0.384186
0.557527
0.737437
0.924578
1.11965
1.3234
1.53664
1.76015
1.9945
2.23984
2.49557
2.75991
3.02943
3.29869
3.56
3.80361
4.01847
4.19366
4.32025
4.3934
4.4138
4.38783
4.3258
4.23897
4.13659
-3.33822
-3.3756
-3.39805
-3.40639
-3.40174
-3.38532
-3.35834
-3.3219
-3.27696
-3.22436
-3.16481
-3.09891
-3.0272
-2.95012
-2.86808
-2.78144
-2.69052
-2.59561
-2.49695
-2.39476
-2.28925
-2.18057
-2.06887
-1.95427
-1.83687
-1.71674
-1.59393
-1.46848
-1.3404
-1.20967
-1.07624
-0.940042
-0.800971
-0.658884
-0.513597
-0.36488
-0.21245
-0.0559665
0.104979
0.270867
0.44226
0.619813
0.804282
0.996535
1.19757
1.40859
1.63111
1.86668
2.11665
2.38179
2.66173
2.95426
3.25463
3.55495
3.84403
4.10797
4.3316
4.50099
4.60643
4.64524
4.62298
4.55206
4.44775
4.32332
-3.5645
-3.60537
-3.62956
-3.63803
-3.63209
-3.61321
-3.58283
-3.54226
-3.49266
-3.43501
-3.37015
-3.29878
-3.22152
-3.13889
-3.05135
-2.95929
-2.86308
-2.76302
-2.65939
-2.55241
-2.44231
-2.32926
-2.2134
-2.09488
-1.9738
-1.85024
-1.72427
-1.59594
-1.46526
-1.33226
-1.19689
-1.05913
-0.918903
-0.776101
-0.630587
-0.482182
-0.330662
-0.175745
-0.017087
0.145732
0.313225
0.486023
0.664904
0.850836
1.04503
1.24903
1.46492
1.69557
1.94383
2.21236
2.50283
2.81505
3.14583
3.48787
3.82912
4.15284
4.43895
4.66693
4.81995
4.88942
4.87815
4.80014
4.67573
4.52404
-3.80788
-3.8528
-3.87893
-3.88739
-3.87976
-3.85779
-3.82324
-3.77769
-3.72252
-3.65891
-3.58784
-3.51014
-3.42653
-3.33758
-3.24383
-3.14572
-3.04362
-2.93789
-2.82881
-2.71663
-2.60156
-2.48381
-2.36352
-2.24084
-2.11587
-1.98872
-1.85946
-1.72816
-1.59486
-1.45959
-1.32236
-1.18317
-1.04199
-0.898767
-0.753439
-0.6059
-0.456014
-0.303605
-0.148445
0.00976145
0.171402
0.336994
0.507241
0.683114
0.865954
1.0576
1.26061
1.47891
1.71752
1.98138
2.27493
2.60091
2.9588
3.34308
3.7418
4.1359
4.5001
4.8058
5.02637
5.14391
5.15535
5.07467
4.92816
4.74324
-4.07049
-4.12018
-4.14848
-4.15672
-4.14682
-4.12095
-4.08123
-4.02961
-3.96774
-3.89704
-3.81867
-3.73362
-3.64267
-3.54653
-3.44576
-3.34085
-3.23221
-3.12021
-3.00516
-2.8873
-2.76686
-2.64404
-2.519
-2.39187
-2.26279
-2.13185
-1.99914
-1.86475
-1.72874
-1.59117
-1.45208
-1.31152
-1.16951
-1.02609
-0.881255
-0.735019
-0.587368
-0.438272
-0.287674
-0.135473
0.0185086
0.174573
0.333234
0.495335
0.662225
0.835963
1.01958
1.21754
1.43723
1.68659
1.97347
2.3045
2.68309
3.10701
3.56593
4.03966
4.49798
4.9032
5.21611
5.4052
5.45683
5.38188
5.21263
4.98785
-4.35495
-4.4103
-4.44101
-4.44871
-4.43577
-4.40489
-4.35872
-4.29962
-4.22963
-4.15045
-4.06347
-3.96981
-3.87041
-3.76603
-3.6573
-3.54476
-3.42884
-3.30991
-3.18829
-3.06423
-2.93797
-2.80968
-2.67953
-2.54765
-2.41418
-2.27922
-2.14287
-2.00522
-1.86636
-1.72638
-1.58537
-1.44342
-1.30063
-1.15709
-1.01294
-0.868292
-0.723295
-0.578106
-0.432891
-0.287811
-0.142985
0.0015738
0.146059
0.291046
0.437728
0.588228
0.745972
0.916111
1.10707
1.33097
1.59958
1.92433
2.31392
2.77113
3.2893
3.84899
4.41632
4.94424
5.37853
5.66919
5.78571
5.73041
5.54021
5.26851
-4.66453
-4.72665
-4.76003
-4.76668
-4.74962
-4.71226
-4.65791
-4.58954
-4.50965
-4.42027
-4.32306
-4.21932
-4.11012
-3.9963
-3.87855
-3.75742
-3.63338
-3.50679
-3.37796
-3.24715
-3.11455
-2.98036
-2.84471
-2.70775
-2.56958
-2.43033
-2.29009
-2.14897
-2.00708
-1.86453
-1.72147
-1.57802
-1.43436
-1.29069
-1.14724
-1.00427
-0.86212
-0.721158
-0.58182
-0.444583
-0.309935
-0.178304
-0.0499313
0.0753397
0.198373
0.321165
0.447359
0.582814
0.736407
0.923728
1.16162
1.46694
1.8549
2.33516
2.90708
3.55472
4.24286
4.91615
5.50384
5.93255
6.14695
6.13259
5.92701
5.60129
-5.00336
-5.07368
-5.10996
-5.11478
-5.09205
-5.04617
-4.98139
-4.90142
-4.80933
-4.70762
-4.59821
-4.48262
-4.36204
-4.2374
-4.10941
-3.97865
-3.84557
-3.71052
-3.57378
-3.4356
-3.29614
-3.15557
-3.01401
-2.87159
-2.7284
-2.58455
-2.44014
-2.2953
-2.15014
-2.0048
-1.85947
-1.71433
-1.56963
-1.42565
-1.28276
-1.14137
-1.002
-0.865276
-0.731919
-0.602765
-0.478722
-0.360703
-0.249479
-0.145438
-0.0482104
0.0438623
0.134395
0.22972
0.339678
0.480636
0.675936
0.948222
1.32011
1.80984
2.4254
3.15762
3.97351
4.81206
5.58615
6.1949
6.54917
6.60626
6.39646
6.01014
-5.37678
-5.45715
-5.49647
-5.49821
-5.46758
-5.41038
-5.33211
-5.23747
-5.1303
-5.01357
-4.88957
-4.76003
-4.62624
-4.48918
-4.34959
-4.20802
-4.06488
-3.92051
-3.77512
-3.62892
-3.48204
-3.3346
-3.18669
-3.03841
-2.88984
-2.74107
-2.5922
-2.44334
-2.29463
-2.14624
-1.99836
-1.85126
-1.70523
-1.56067
-1.41804
-1.27792
-1.14103
-1.00823
-0.880554
-0.759206
-0.645537
-0.540974
-0.44687
-0.364241
-0.293332
-0.233009
-0.179939
-0.127619
-0.0653299
0.0231868
0.166406
0.393459
0.734853
1.2187
1.86401
2.67205
3.6166
4.63545
5.62753
6.46219
7.00739
7.17752
6.9824
6.5303
-5.79186
-5.88464
-5.92696
-5.92362
-5.88181
-5.80933
-5.7134
-5.60007
-5.47408
-5.33902
-5.19753
-5.05153
-4.9024
-4.75113
-4.59841
-4.44474
-4.29047
-4.13585
-3.98103
-3.82614
-3.67125
-3.51643
-3.36173
-3.2072
-3.05288
-2.89885
-2.74519
-2.59201
-2.43945
-2.28769
-2.13696
-1.98756
-1.83986
-1.69433
-1.55154
-1.41224
-1.27731
-1.14785
-1.0252
-0.910903
-0.80674
-0.714642
-0.636538
-0.574081
-0.52819
-0.498369
-0.481787
-0.472122
-0.458285
-0.423122
-0.337457
-0.164207
0.134764
0.598061
1.25762
2.12863
3.19677
4.4048
5.64284
6.75114
7.54697
7.88454
7.7335
7.21305
-6.25819
-6.36645
-6.41124
-6.39957
-6.34164
-6.24821
-6.12892
-5.99154
-5.84196
-5.68443
-5.52194
-5.35655
-5.18964
-5.02212
-4.85461
-4.68746
-4.52092
-4.35509
-4.19003
-4.02578
-3.8623
-3.6996
-3.53767
-3.37648
-3.21606
-3.05644
-2.89768
-2.73987
-2.58316
-2.42772