# vtk DataFile Version 2.0
Lid-driven cavity
ASCII
DATASET STRUCTURED_POINTS
DIMENSIONS 64 64 1
ORIGIN 0.0078125 0.0078125 0
SPACING 0.015625 0.015625 1
POINT_DATA 4096
SCALARS pressure double 1
LOOKUP_TABLE default
4.77535
4.76571
4.74794
4.72779
4.70945
4.69569
4.68816
4.68781
4.69511
4.71022
4.73313
4.76375
4.80192
4.8475
4.90034
4.96033
5.02736
5.10135
5.18222
5.26991
5.36434
5.46543
5.57307
5.6871
5.80734
5.93354
6.06539
6.20251
6.34445
6.49066
6.64051
6.79331
6.94826
7.10449
7.26105
7.41694
7.57106
7.72229
7.86949
8.01151
8.14724
8.27562
8.39569
8.50657
8.60753
8.69801
8.77758
8.84602
8.90329
8.94952
8.98504
9.01035
9.02609
9.03306
9.03217
9.02449
9.01116
8.9935
8.97295
8.95119
8.93016
8.91214
8.8997
8.89528
4.785
4.77529
4.76094
4.74551
4.73194
4.72241
4.71838
4.72076
4.73009
4.74664
4.77049
4.80163
4.84
4.88551
4.93805
4.99754
5.0639
5.13706
5.21693
5.30346
5.39656
5.49614
5.60207
5.71419
5.83231
5.95617
6.08546
6.2198
6.35872
6.50171
6.64814
6.79733
6.94851
7.10085
7.25343
7.40528
7.55537
7.70261
7.84593
7.98423
8.11646
8.24163
8.3588
8.46718
8.56607
8.65494
8.73341
8.80128
8.85851
8.90525
8.94182
8.9687
8.98652
8.99605
8.99819
8.99393
8.98441
8.97084
8.9546
8.93718
8.92024
8.90561
8.89521
8.89086
4.80293
4.78951
4.77499
4.76131
4.75032
4.74351
4.742
4.74655
4.75761
4.77547
4.80025
4.83197
4.87062
4.91613
4.96846
5.02754
5.0933
5.16569
5.24464
5.33008
5.42194
5.52012
5.6245
5.73492
5.85116
5.97299
6.10009
6.23208
6.36852
6.50888
6.65256
6.79889
6.94713
7.09647
7.24603
7.39485
7.54194
7.68626
7.82675
7.96235
8.09205
8.21489
8.32998
8.43653
8.53389
8.62155
8.69915
8.7665
8.82358
8.87056
8.90775
8.93563
8.95483
8.9661
8.9703
8.96842
8.96151
8.95073
8.93733
8.92261
8.90797
8.89485
8.88464
8.87862
4.82348
4.80483
4.78815
4.7743
4.76427
4.75898
4.75913
4.76526
4.77771
4.79668
4.82229
4.85457
4.89351
4.93908
4.99125
5.04996
5.11518
5.18686
5.26495
5.3494
5.44012
5.53704
5.64002
5.74892
5.86355
5.98365
6.10892
6.239
6.37344
6.51175
6.65334
6.79753
6.94362
7.09081
7.23824
7.38498
7.53005
7.67242
7.81106
7.94492
8.07299
8.19434
8.30808
8.41345
8.50979
8.59662
8.67359
8.74051
8.79739
8.84439
8.88184
8.91024
8.93019
8.94246
8.94789
8.94743
8.9421
8.93296
8.92116
8.90782
8.89412
8.88113
8.86986
8.86106
4.84236
4.81812
4.79834
4.7832
4.77307
4.76837
4.76948
4.77668
4.79015
4.81001
4.83631
4.86907
4.90827
4.9539
5.00592
5.06431
5.12903
5.20006
5.27736
5.36089
5.45058
5.54636
5.64812
5.75572
5.86897
5.98765
6.11145
6.24004
6.37298
6.5098
6.6499
6.79265
6.93733
7.08318
7.22934
7.37489
7.51886
7.66022
7.79792
7.93092
8.05823
8.17887
8.29198
8.39678
8.49262
8.57901
8.65559
8.72221
8.77887
8.82574
8.86317
8.89166
8.91184
8.92446
8.93039
8.93053
8.92586
8.91741
8.90618
8.89319
8.87939
8.86563
8.85257
8.84062
4.85644
4.82683
4.80364
4.78661
4.77572
4.771
4.77252
4.78035
4.79452
4.81503
4.84186
4.875
4.91441
4.96006
5.01194
5.07001
5.13427
5.2047
5.28128
5.36397
5.45274
5.54752
5.64822
5.75472
5.86685
5.9844
6.1071
6.2346
6.36652
6.50237
6.6416
6.78356
6.92757
7.07285
7.21856
7.36378
7.50751
7.64873
7.78637
7.91938
8.04673
8.16744
8.28061
8.38545
8.4813
8.56764
8.64413
8.71059
8.76705
8.81369
8.85087
8.87911
8.89907
8.91151
8.91728
8.91731
8.91255
8.90396
8.89249
8.87904
8.86441
8.84929
8.83413
8.81911
4.86349
4.82894
4.80234
4.78319
4.77116
4.76601
4.76757
4.77569
4.79027
4.81121
4.83841
4.87181
4.91134
4.95698
5.00868
5.06645
5.13027
5.20014
5.27605
5.35799
5.44595
5.53987
5.63969
5.7453
5.85656
5.97328
6.09521
6.22204
6.3534
6.48881
6.62774
6.76956
6.91359
7.05905
7.20509
7.35078
7.49513
7.63706
7.77549
7.90934
8.03753
8.15905
8.27297
8.37847
8.47484
8.56155
8.63825
8.70476
8.76108
8.80744
8.84421
8.87193
8.89128
8.90306
8.90814
8.90745
8.90193
8.89253
8.88015
8.86561
8.84964
8.83281
8.81548
8.79771
4.86183
4.82281
4.79298
4.77167
4.75833
4.7525
4.75383
4.762
4.77677
4.79794
4.82535
4.85889
4.89846
4.94402
4.99553
5.05299
5.11638
5.18572
5.26103
5.34231
5.42956
5.52275
5.62185
5.72678
5.83742
5.9536
6.07511
6.20166
6.33289
6.46836
6.60756
6.74986
6.89458
7.04094
7.18807
7.33504
7.48081
7.62428
7.76433
7.89983
8.02966
8.15276
8.26813
8.37491
8.47235
8.55989
8.63714
8.70391
8.76023
8.8063
8.84253
8.8695
8.88793
8.89864
8.90254
8.90059
8.89376
8.88297
8.86913
8.85303
8.83535
8.81662
8.79716
8.77704
4.85015
4.80713
4.77431
4.7509
4.73619
4.72956
4.73048
4.73851
4.75329
4.77454
4.80203
4.83559
4.87513
4.92055
4.97183
5.02895
5.09193
5.16078
5.23554
5.31623
5.40288
5.49548
5.59403
5.69848
5.80873
5.92466
6.04606
6.1727
6.30423
6.44024
6.58024
6.72362
6.86967
7.01762
7.16659
7.3156
7.46359
7.60942
7.75192
7.88989
8.02216
8.1476
8.26515
8.37387
8.47297
8.56182
8.64002
8.70734
8.7638
8.80964
8.84527
8.87132
8.88855
8.89783
8.90013
8.89646
8.8878
8.87514
8.85937
8.8413
8.82163
8.80088
8.7794
8.7573
4.82739
4.78077
4.74521
4.71982
4.70377
4.69627
4.69669
4.70445
4.71911
4.74031
4.76776
4.80126
4.84066
4.88589
4.9369
4.99368
5.05624
5.12463
5.19888
5.27906
5.3652
5.45734
5.55549
5.65964
5.76973
5.88565
6.00726
6.13432
6.26655
6.40355
6.54485
6.68986
6.83787
6.98808
7.13958
7.29139
7.44238
7.59138
7.73716
7.87845
8.01399
8.14258
8.26307
8.37445
8.47584
8.56657
8.64616
8.71437
8.7712
8.8169
8.85192
8.87691
8.89271
8.90025
8.90057
8.89473
8.88381
8.86881
8.85071
8.83034
8.80843
8.78557
8.76215
8.73836
4.79265
4.74278
4.70472
4.6775
4.66015
4.65178
4.65163
4.65905
4.67349
4.69453
4.72184
4.75518
4.79439
4.83937
4.89006
4.94647
5.00862
5.07655
5.15035
5.23007
5.31579
5.40757
5.50545
5.60946
5.71957
5.83572
5.95779
6.08559
6.21886
6.35725
6.5003
6.64747
6.79801
6.9511
7.10583
7.26115
7.41592
7.5689
7.7188
7.86426
8.00395
8.13655
8.26082
8.37564
8.48004
8.57328
8.65479
8.72432
8.78182
8.82755
8.862
8.88586
8.90005
8.90557
8.90355
8.89515
8.88153
8.86378
8.84294
8.81993
8.79555
8.77045
8.74512
8.71985
4.74514
4.69232
4.65198
4.62305
4.60447
4.59525
4.59451
4.60152
4.61567
4.63647
4.66356
4.69667
4.73561
4.78028
4.83062
4.88663
4.94834
5.01583
5.08918
5.16848
5.25384
5.34533
5.44305
5.54705
5.65733
5.77389
5.89663
6.02542
6.16003
6.30014
6.44534
6.5951
6.74869
6.90525
7.06383
7.22337
7.38267
7.54044
7.69531
7.84584
7.99059
8.12813
8.25709
8.37624
8.48449
8.58098
8.66509
8.73646
8.79504
8.84107
8.87506
8.89779
8.91022
8.91348
8.90879
8.89745
8.8807
8.85977
8.8358
8.8098
8.78267
8.75516
8.72788
8.70123
4.68413
4.62862
4.58619
4.55569
4.53596
4.52591
4.52457
4.53113
4.54493
4.56543
4.59222
4.62502
4.66363
4.70792
4.75785
4.81341
4.87467
4.9417
5.01459
5.09349
5.1785
5.26975
5.36735
5.47141
5.58196
5.69904
5.8226
5.95255
6.0887
6.23079
6.37843
6.53114
6.68822
6.84874
7.01176
7.17616
7.34071
7.50407
7.66478
7.82132
7.97211
8.1156
8.25029
8.37479
8.48786
8.58852
8.67602
8.74992
8.81013
8.85685
8.89063
8.91229
8.9229
8.92369
8.91604
8.90136
8.88107
8.85652
8.82898
8.7996
8.76939
8.73924
8.70985
8.68178
4.60898
4.551
4.50664
4.47468
4.45386
4.443
4.44106
4.44715
4.46055
4.48068
4.50711
4.53952
4.57772
4.62156
4.67102
4.72608
4.78682
4.85334
4.92574
5.00419
5.08883
5.17982
5.27731
5.38142
5.49226
5.60989
5.73432
5.8655
6.00329
6.14748
6.29774
6.45363
6.61452
6.77942
6.94735
7.11718
7.28766
7.45738
7.62481
7.78831
7.9462
8.09677
8.23835
8.36938
8.48844
8.59438
8.6863
8.76364
8.82622
8.8742
8.90816
8.92895
8.93775
8.93594
8.92505
8.90667
8.88239
8.85374
8.82215
8.78893
8.75525
8.7221
8.69035
8.66068
4.51908
4.4588
4.41265
4.37933
4.35749
4.34585
4.3433
4.34888
4.36183
4.38153
4.40752
4.43947
4.47717
4.52048
4.56937
4.62385
4.68399
4.7499
4.82173
4.89965
4.98383
5.07447
5.17174
5.27583
5.38686
5.50496
5.63018
5.76252
5.90191
6.0482
6.2011
6.36024
6.52509
6.69462
6.86781
7.04354
7.22053
7.39733
7.57233
7.7438
7.90991
8.0688
8.21859
8.35753
8.48399
8.59658
8.69421
8.77617
8.84214
8.89222
8.92695
8.94725
8.95441
8.94995
8.93559
8.91314
8.88441
8.85113
8.81495
8.77736
8.73968
8.7031
8.66861
8.63704
4.41386
4.35143
4.30362
4.26902
4.2462
4.2338
4.23062
4.23566
4.2481
4.2673
4.29277
4.32416
4.36126
4.40393
4.45213
4.5059
4.5653
4.63048
4.70158
4.77881
4.86237
4.95248
5.04935
5.15319
5.26421
5.38254
5.50832
5.6416
5.78237
5.93053
6.0859
6.24815
6.41686
6.59108
6.76972
6.95165
7.1356
7.32009
7.50347
7.6839
7.85942
8.02797
8.18749
8.33596
8.4715
8.59244
8.69745
8.78557
8.85631
8.90964
8.94606
8.96652
8.97239
8.96538
8.94741
8.92056
8.88689
8.84842
8.80702
8.76441
8.72213
8.68152
8.64376
8.60984
4.29277
4.22834
4.17896
4.14314
4.11938
4.10622
4.1024
4.10685
4.11872
4.13733
4.16217
4.1929
4.22926
4.27115
4.31852
4.3714
4.42988
4.49411
4.56427
4.64057
4.72324
4.81252
4.90867
5.01193
5.12254
5.24071
5.36662
5.50039
5.64208
5.79167
5.94906
6.11402
6.2862
6.46492
6.64892
6.83712
7.02828
7.22094
7.41339
7.60374
7.78987
7.96955
8.14048
8.30036
8.44699
8.57839
8.69286
8.78916
8.86652
8.92473
8.96417
8.98578
8.99102
8.98176
8.9602
8.92868
8.8896
8.84531
8.79798
8.7496
8.70195
8.6566
8.6149
8.57803
4.15531
4.089
4.03813
4.00116
3.97647
3.96254
3.95804
3.96185
3.97307
3.99098
4.01508
4.04499
4.08046
4.12138
4.16771
4.21948
4.2768
4.33981
4.40871
4.48373
4.56512
4.65315
4.7481
4.85026
4.9599
5.07729
5.20267
5.33622
5.4781
5.62837
5.78704
5.95397
6.12892
6.3115
6.50044
6.69466
6.893
7.09405
7.2961
7.4972
7.69513
7.88748
8.07169
8.24513
8.40525
8.54964
8.67621
8.78328
8.86972
8.93502
8.97938
9.00364
9.00932
8.99846
8.97351
8.93719
8.89227
8.8415
8.78744
8.73241
8.67849
8.62751
8.58104
8.54045
4.00102
3.93293
3.88066
3.84256
3.81696
3.80224
3.79701
3.80009
3.81055
3.82765
3.85085
3.87976
3.91415
3.95388
3.99891
4.04928
4.1051
4.16652
4.23375
4.30703
4.38662
4.47281
4.56592
4.66625
4.77412
4.88986
5.01376
5.14609
5.28709
5.43693
5.59572
5.76349
5.94012
6.12542
6.31844
6.51802
6.72311
6.93242
7.14431
7.35682
7.56764
7.7742
7.97368
8.16311
8.33949
8.49995
8.64184
8.76297
8.86168
8.93706
8.98896
9.01805
9.02583
9.01447
8.98672
8.94566
8.89457
8.83666
8.77498
8.7123
8.65105
8.59338
8.54112
8.49587
3.82945
3.75969
3.70607
3.66688
3.64035
3.6248
3.61877
3.62104
3.63061
3.64674
3.66886
3.69658
3.72963
3.76788
3.81129
3.85991
3.91382
3.97319
4.03822
4.10915
4.18627
4.26986
4.36027
4.45782
4.56287
4.67579
4.79694
4.92668
5.06533
5.21319
5.37052
5.53749
5.71418
5.90055
6.09622
6.29992
6.51082
6.7278
6.94936
7.1736
7.39819
7.62043
7.83724
8.04529
8.24111
8.42123
8.58238
8.72165
8.83674
8.9261
8.9891
9.02608
9.0384
9.02831
8.99881
8.95345
8.89603
8.83039
8.76017
8.6887
8.61889
8.55327
8.49401
8.44297
3.6402
3.56886
3.51395
3.47369
3.44622
3.42979
3.42287
3.4242
3.43275
3.44773
3.46855
3.49481
3.52624
3.56268
3.60409
3.6505
3.70199
3.75873
3.82091
3.88876
3.96255
4.04259
4.12921
4.22277
4.32366
4.43227
4.54904
4.67439
4.80878
4.95263
5.10637
5.27035
5.44489
5.63016
5.82622
6.03216
6.24724
6.47066
6.70116
6.93699
7.17588
7.41505
7.65121
7.88066
8.09942
8.30334
8.48838
8.65078
8.78735
8.89572
8.97454
9.0236
9.04393
9.03776
9.0083
8.95956
8.89599
8.82216
8.74247
8.66097
8.5812
8.50618
8.43849
8.38032
3.43291
3.36009
3.30394
3.26261
3.23417
3.21679
3.20889
3.20914
3.21649
3.23011
3.24939
3.2739
3.30335
3.33759
3.37654
3.42022
3.4687
3.52212
3.58065
3.64451
3.71396
3.78928
3.8708
3.95888
4.05392
4.15637
4.26671
4.38545
4.51315
4.65041
4.79782
4.95598
5.12545
5.30673
5.50017
5.70565
5.92249
6.15034
6.38831
6.63494
6.88812
7.1451
7.40242
7.65606
7.90148
8.13381
8.34809
8.53953
8.70384
8.83753
8.93823
9.00491
9.03806
9.03963
9.01298
8.96254
8.89347
8.81126
8.72126
8.62843
8.53711
8.45102
8.37326
8.30638
3.20727
3.13305
3.0757
3.03331
3.00386
2.98545
2.97645
2.97548
2.98142
2.99344
3.01089
3.03332
3.06041
3.09199
3.12796
3.1683
3.21307
3.26237
3.31633
3.37514
3.43902
3.50823
3.58307
3.6639
3.7511
3.84515
3.94658
4.05598
4.17403
4.3015
4.43919
4.58798
4.74874
4.92231
5.10946
5.31076
5.52593
5.75523
5.99829
6.25409
6.52083
6.79589
7.07579
7.35621
7.63208
7.89776
8.14726
8.37457
8.57404
8.74075
8.87097
8.96247
9.01481
9.02945
9.00964
8.9602
8.88705
8.79671
8.69573
8.59025
8.48569
8.38664
8.29688
8.21949
2.96301
2.88747
2.82897
2.78551
2.755
2.73548
2.72525
2.72287
2.7272
2.73736
2.75266
2.77264
2.79694
2.82535
2.85774
2.89406
2.93433
2.97858
3.02691
3.07945
3.13637
3.19788
3.26422
3.33571
3.41274
3.49577
3.58536
3.68219
3.78706
3.90092
4.02481
4.15991
4.30746
4.46876
4.64504
4.83742
5.04651
5.27318
5.51785
5.78014
6.05874
6.35135
6.65457
6.96393
7.27387
7.57798
7.86914
8.13997
8.38316
8.59205
8.7611
8.88645
8.96629
9.00114
8.99387
8.94949
8.87467
8.77712
8.66485
8.54549
8.42588
8.31177
8.20784
8.11782
2.69991
2.62315
2.56353
2.51898
2.48736
2.46663
2.45502
2.45106
2.45354
2.46155
2.47438
2.4915
2.51253
2.53722
2.56539
2.59694
2.63182
2.67001
2.71154
2.75645
2.80484
2.85684
2.91261
2.97243
3.03661
3.10561
3.18001
3.26055
3.34815
3.44393
3.54923
3.66555
3.79458
3.93811
4.09796
4.27589
4.47337
4.69202
4.93356
5.19842
5.486
5.79454
6.12092
6.46063
6.8078
7.15523
7.49469
7.81725
8.11373
8.37534
8.59429
8.76454
8.88232
8.94668
8.95966
8.92615
8.85347
8.7506
8.62727
8.49302
8.35651
8.22504
8.10449
7.99944
2.4178
2.3399
2.27919
2.23355
2.20075
2.17871
2.16558
2.15984
2.16025
2.16582
2.17581
2.18965
2.20692
2.2273
2.25056
2.27653
2.30509
2.33612
2.36956
2.40536
2.4435
2.48401
2.52695
2.57248
2.62085
2.67248
2.72793
2.788
2.85371
2.92638
3.00762
3.09932
3.20366
3.32302
3.4599
3.61683
3.79612
4.0002
4.23251
4.49463
4.78695
5.10846
5.45658
5.82702
6.21371
6.60883
7.00304
7.3858
7.74585
8.07192
8.3535
8.58172
8.75023
8.85587
8.8992
8.88453
8.81956
8.71456
8.58125
8.43149
8.27629
8.125
7.98511
7.86227
2.1166
2.03763
1.97586
1.9291
1.89507
1.87161
1.85682
1.84911
1.8472
1.85004
1.85684
1.86698
1.87997
1.89544
1.91308
1.93263
1.95387
1.97659
2.0006
2.02571
2.05178
2.07868
2.10634
2.13478
2.16416
2.19479
2.22721
2.26223
2.30098
2.34496
2.39608
2.45665
2.52939
2.61734
2.72379
2.85216
3.00579
3.18767
3.40318
3.65576
3.94701
4.277
4.64397
5.04408
5.47135
5.91753
6.3723
6.82349
7.25767
7.66078
8.01911
8.32035
8.55473
8.71606
8.80257
8.81729
8.76783
8.66563
8.52456
8.3593
8.18381
8.01014
7.84788
7.70414
1.79624
1.71628
1.65347
1.60557
1.57024
1.54527
1.52868
1.51883
1.51436
1.5142
1.51747
1.52349
1.53171
1.54167
1.55297
1.56526
1.57819
1.59142
1.60461
1.61742
1.62952
1.64062
1.65046
1.65889
1.66592
1.67173
1.67679
1.68191
1.68829
1.69761
1.71209
1.73448
1.76807
1.81664
1.88438
1.97571
2.09506
2.2466
2.43639
2.6711
2.95388
3.28616
3.6673
4.09431
4.56157
5.0607
5.58062
6.10769
6.62625
7.11928
7.56945
7.96037
8.27801
8.51214
8.65762
8.71521
8.69174
8.59943
8.45437
8.27453
8.07753
7.87888
7.69097
7.52285
1.45675
1.37584
1.312
1.26294
1.22627
1.19969
1.18118
1.16903
1.16182
1.1584
1.15782
1.15935
1.16233
1.16621
1.1705
1.17471
1.17835
1.18094
1.18194
1.18084
1.17709
1.17018
1.15964
1.1451
1.12636
1.10346
1.07674
1.04696
1.01538
0.98385
0.954876
0.931662
0.918122
0.918837
0.938955
0.98403
1.05979
1.17183
1.32625
1.53334
1.79863
2.12523
2.51399
2.96311
3.46774
4.01975
4.60762
5.21653
5.8287
6.42412
6.98153
7.47989
7.90005
8.22665
8.44992
8.56711
8.58319
8.51049
8.36723
8.17497
7.95582
7.72969
7.51263
7.3162
1.09817
1.01636
0.951491
0.901252
0.863182
0.834936
0.814422
0.799852
0.789736
0.782847
0.778175
0.774873
0.772208
0.769519
0.766178
0.761559
0.755016
0.74587
0.7334
0.716848
0.695434
0.668384
0.634969
0.594564
0.546722
0.491264
0.428381
0.358749
0.283641
0.205043
0.125743
0.0494017
-0.0194272
-0.0753232
-0.112097
-0.12296
-0.100774
-0.0383791
0.0710779
0.239578
0.476876
0.788108
1.17597
1.64024
2.1773
2.7797
3.43598
4.13049
4.8437
5.55268
6.23219
6.85607
7.3993
7.8402
8.16296
8.3598
8.4324
8.39217
8.25892
8.05809
7.81701
7.56113
7.31123
7.08218
0.720616
0.637917
0.572011
0.520567
0.481071
0.451117
0.428543
0.411482
0.398366
0.387882
0.37893
0.370563
0.361939
0.352272
0.340791
0.326708
0.309195
0.287362
0.260257
0.226866
0.186131
0.136982
0.0783877
0.00941852
-0.0706616
-0.16229
-0.265481
-0.379689
-0.503666
-0.635324
-0.771616
-0.908439
-1.0406
-1.1618
-1.26478
-1.34142
-1.38309
-1.38092
-1.32637
-1.20778
-1.01021
-0.725573
-0.349002
0.121263
0.683281
1.33085
2.05309
2.83412
3.65312
4.48464
5.29954
6.06638
6.75358
7.33209
7.77856
8.07836
8.22805
8.23659
8.12452
7.92106
7.65949
7.372
7.08547
6.81907
0.324231
0.24062
0.173653
0.120981
0.0800478
0.0483825
0.023747
0.00419305
-0.0119395
-0.0260576
-0.0393654
-0.052921
-0.0676915
-0.0846035
-0.104586
-0.128608
-0.157705
-0.192994
-0.235688
-0.287086
-0.348555
-0.421494
-0.50728
-0.607185
-0.722281
-0.853308
-1.00053
-1.16359
-1.3413
-1.53152
-1.73097
-1.93514
-2.13819
-2.33299
-2.51114
-2.66319
-2.77888
-2.84756
-2.85869
-2.80052
-2.65517
-2.40957
-2.05634
-1.59132
-1.01433
-0.329745
0.45276
1.31778
2.24389
3.20374
4.16468
5.09006
5.94141
6.68139
7.27756
7.70647
7.95741
8.0348
7.95845
7.76085
7.48178
7.1615
6.83452
6.52564
-0.090827
-0.175411
-0.243485
-0.297404
-0.339763
-0.373098
-0.399727
-0.421691
-0.440752
-0.458424
-0.476028
-0.494748
-0.51569
-0.539937
-0.568592
-0.602822
-0.643885
-0.693154
-0.752119
-0.82239
-0.905672
-1.00373
-1.1183
-1.25106
-1.40344
-1.57654
-1.77091
-1.98642
-2.22201
-2.47552
-2.7435
-3.02106
-3.30177
-3.57764
-3.8392
-4.0756
-4.27497
-4.42476
-4.51231
-4.52482
-4.44376
-4.25048
-3.9339
-3.48719
-2.90755
-2.19703
-1.36338
-0.420746
0.609712
1.69958
2.81345
3.90991
4.94356
5.86813
6.64077
7.22719
7.6068
7.77694
7.75458
7.57437
7.28277
6.92943
6.55831
6.20146
-0.524395
-0.610065
-0.679316
-0.734499
-0.778243
-0.813148
-0.841621
-0.865807
-0.88758
-0.908578
-0.930253
-0.95393
-0.980868
-1.01232
-1.04958
-1.09403
-1.14716
-1.21062
-1.2862
-1.37584
-1.4816
-1.60562
-1.75007
-1.91702
-2.10831
-2.32542
-2.56926
-2.83996
-3.13662
-3.45713
-3.79792
-4.15377
-4.51772
-4.88099
-5.23303
-5.56166
-5.85339
-6.09378
-6.26797
-6.36138
-6.35527
-6.22768
-5.9618
-5.54778
-4.97983
-4.25714
-3.38483
-2.37496
-1.24742
-0.0306178
1.23832
2.51407
3.74474
4.87491
5.8503
6.62378
7.1622
7.4527
7.50652
7.35865
7.06191
6.67647
6.25782
5.84716
-0.976334
-1.06326
-1.13379
-1.19026
-1.23531
-1.27161
-1.30168
-1.32777
-1.35189
-1.3758
-1.40113
-1.42933
-1.46185
-1.50012
-1.54564
-1.60001
-1.66499
-1.74249
-1.83462
-1.94367
-2.07207
-2.22238
-2.39717
-2.59895
-2.83
-3.09222
-3.38689
-3.71445
-4.07422
-4.46419
-4.88072
-5.31835
-5.76964
-6.22509
-6.67317
-7.10043
-7.49179
-7.83095
-8.10095
-8.28483
-8.36346
-8.31357
-8.11269
-7.74652
-7.20605
-6.48715
-5.59172
-4.52886
-3.31614
-1.9807
-0.560055
0.897792
2.33541
3.68858
4.89098
5.88099
6.61016
7.05184
7.20803
7.11123
6.81955
6.40455
5.93543
5.46487
-1.44655
-1.535
-1.60695
-1.6647
-1.71093
-1.74839
-1.77968
-1.8072
-1.83311
-1.85933
-1.88765
-1.9197
-1.95711
-2.00151
-2.05461
-2.11826
-2.19447
-2.28545
-2.39363
-2.52163
-2.67229
-2.84857
-3.05347
-3.28995
-3.56076
-3.86821
-4.21399
-4.59888
-5.02249
-5.48294
-5.9766
-6.49783
-7.03881
-7.58942
-8.13723
-8.66764
-9.1641
-9.60854
-9.98191
-10.2649
-10.4373
-10.4749
-10.3526
-10.0495
-9.55302
-8.85546
-7.9549
-6.85674
-5.57513
-4.13464
-2.5716
-0.935058
0.713468
2.3019
3.75197
4.98639
5.93881
6.56507
6.85353
6.83052
6.55735
6.11728
5.59541
5.05865
-1.93505
-2.02535
-2.09891
-2.15796
-2.20521
-2.24346
-2.27547
-2.30377
-2.3307
-2.35837
-2.38875
-2.42367
-2.46496
-2.51447
-2.57413
-2.64603
-2.73244
-2.83588
-2.9591
-3.10506
-3.277
-3.47826
-3.71231
-3.98253
-4.29214
-4.6439
-5.03991
-5.48134
-5.96809
-6.49848
-7.06895
-7.67378
-8.30486
-8.95157
-9.60072
-10.2367
-10.8416
-11.3957
-11.8781
-12.2671
-12.541
-12.6747
-12.642
-12.4166
-11.9807
-11.3227
-10.4367
-9.32366
-7.99331
-6.46629
-4.77611
-2.97092
-1.11437
0.715212
2.42843
3.93189
5.1392
5.98492
6.43888
6.5164
6.27876
5.82041
5.24444
4.6351
-2.44195
-2.53456
-2.60996
-2.67033
-2.71835
-2.75694
-2.78898
-2.81721
-2.84414
-2.87213
-2.90333
-2.93982
-2.98364
-3.03685
-3.10164
-3.18034
-3.27549
-3.3899
-3.52662
-3.68899
-3.88058
-4.10517
-4.36663
-4.66878
-5.01529
-5.40937
-5.85355
-6.34939
-6.89711
-7.49529
-8.14051
-8.82704
-9.54659
-10.2882
-11.038
-11.7796
-12.4939
-13.1598
-13.7546
-14.2547
-14.636
-14.8729
-14.9381
-14.8034
-14.4437
-13.8436
-12.9925
-11.8866
-10.5306
-8.9398
-7.14323
-5.18601
-3.13161
-1.0623
0.923025
2.71529
4.20668
5.30696
5.96222
6.1709
5.98968
5.52255
4.89231
4.20396
-2.96755
-3.06307
-3.14063
-3.2023
-3.25079
-3.28911
-3.32031
-3.34735
-3.373
-3.39984
-3.4303
-3.46669
-3.51129
-3.56641
-3.63448
-3.71808
-3.82003
-3.94342
-4.0916
-4.26824
-4.47727
-4.72283
-5.0092
-5.34063
-5.72121
-6.15458
-6.6437
-7.19051
-7.7956
-8.45784
-9.17399
-9.93842
-10.7428
-11.5758
-12.4234
-13.2682
-14.0905
-14.8678
-15.5759
-16.1894
-16.6823
-17.0276
-17.1974
-17.1627
-16.8935
-16.3683
-15.5722
-14.4963
-13.1394
-11.5107
-9.63308
-7.54647
-5.31152
-3.01169
-0.752844
1.34169
3.14229
4.53107
5.42504
5.79907
5.69917
5.23582
4.55259
3.77893
-3.5124
-3.61157
-3.69167
-3.75465
-3.80321
-3.84049
-3.86975
-3.89422
-3.91695
-3.94084
-3.96859
-4.0028
-4.04602
-4.10082
-4.16989
-4.25605
-4.3624
-4.49228
-4.64935
-4.83757
-5.06121
-5.32475
-5.63283
-5.9901
-6.40104
-6.86969
-7.39943
-7.99259
-8.6501
-9.37117
-10.1528
-10.9895
-11.8731
-12.7921
-13.7321
-14.6755
-15.6016
-16.4873
-17.3071
-18.0339
-18.64
-19.097
-19.376
-19.4476
-19.2804
-18.8453
-18.1229
-17.0991
-15.7667
-14.1277
-12.1976
-10.0092
-7.61746
-5.10392
-2.57816
-0.17524
1.95419
3.66272
4.83332
5.40993
5.42034
4.97677
4.2436
3.37853
-4.07735
-4.18112
-4.26424
-4.3285
-4.37663
-4.4119
-4.43785
-4.45801
-4.47583
-4.49453
-4.51719
-4.54671
-4.58595
-4.63776
-4.70508
-4.79101
-4.89888
-5.03231
-5.1952
-5.39181
-5.62667
-5.90461
-6.23057
-6.60954
-7.04636
-7.54544
-8.11053
-8.74432
-9.44813
-10.2215
-11.0616
-11.9634
-12.9187
-13.9162
-14.9414
-15.9763
-17.0001
-17.9887
-18.9158
-19.7532
-20.4715
-21.041
-21.4318
-21.6136
-21.5555
-21.2232
-20.591
-19.6399
-18.3562
-16.7349
-14.7825
-12.5232
-10.0037
-7.3001
-4.52191
-1.81241
0.658853
2.71433
4.19879
5.01761
5.1714
4.76738
3.98941
3.02716
-4.66367
-4.7732
-4.85992
-4.92544
-4.97248
-5.00453
-5.02545
-5.03921
-5.04966
-5.06051
-5.0752
-5.09705
-5.12923
-5.17491
-5.23729
-5.31974
-5.42583
-5.5594
-5.72461
-5.92595
-6.1682
-6.45645
-6.79591
-7.19187
-7.64946
-8.17341
-8.7678
-9.43565
-10.1786
-10.9966
-11.8872
-12.8454
-13.8635
-14.9304
-16.0315
-17.149
-18.2617
-19.3454
-20.3731
-21.3157
-22.1427
-22.823
-23.3256
-23.6196
-23.6737
-23.4534
-22.9248
-22.064
-20.8513
-19.274
-17.3297
-15.0319
-12.417
-9.5524
-6.54329
-3.53679
-0.717939
1.70656
3.54025
4.64257
4.97677
4.6362
3.82108
2.75636
-5.27311
-5.38986
-5.4809
-5.54759
-5.59273
-5.62004
-5.63383
-5.63859
-5.63874
-5.63851
-5.64186
-5.65253
-5.67408
-5.71001
-5.76382
-5.83911
-5.93969
-6.06962
-6.23327
-6.4353
-6.68073
-6.97481
-7.323
-7.73081
-8.20359
-8.74634
-9.3634
-10.0581
-10.8324
-11.6865
-12.6184
-13.6235
-14.6943
-15.8199
-16.9863
-18.1757
-19.367
-20.5359
-21.655
-22.695
-23.6245
-24.4113
-25.0233
-25.4289
-25.5961
-25.4915
-25.0764
-24.32
-23.1971
-21.6875
-19.7794
-17.475
-14.7986
-11.8054
-8.59239
-5.30542
-2.1404
0.669421
2.88493
4.31299
4.86849
4.61978
3.77803
2.60619
-5.90809
-6.03386
-6.13006
-6.19782
-6.23997
-6.26065
-6.26471
-6.25733
-6.24363
-6.22852
-6.21655
-6.21198
-6.21881
-6.2409
-6.28205
-6.34612
-6.43712
-6.5593
-6.71718
-6.9156
-7.1597
-7.4549
-7.80679
-8.22103
-8.70314
-9.25832
-9.89111
-10.6051
-11.4024
-12.2837
-13.2472
-14.2888
-15.4012
-16.5743
-17.7941
-19.0434
-20.3013
-21.5438
-22.7435
-23.871
-24.8943
-25.7806
-26.4969
-27.0109
-27.2898
-27.3002
-27.004
-26.3618
-25.3431
-23.9206
-22.0732
-19.7917
-17.0863
-13.9981
-10.6114
-7.06582
-3.5624
-0.356749
2.26987
4.06627
4.8877
4.76423
3.90983
2.62699
-6.57186
-6.70887
-6.81125
-6.87985
-6.91764
-6.92928
-6.92039
-6.89704
-6.86525
-6.83075
-6.79883
-6.77436
-6.76184
-6.76552
-6.78952
-6.83794
-6.91498
-7.02504
-7.17276
-7.36308
-7.60123
-7.8927
-8.24315
-8.65834
-9.14386
-9.70502
-10.3465
-11.072
-11.8841
-12.7834
-13.7688
-14.8362
-15.9792
-17.1877
-18.4485
-19.7448
-21.0564
-22.3595
-23.6273
-24.8303
-25.9368
-26.9134
-27.7264
-28.3426
-28.7289
-28.8512
-28.6728
-28.15
-27.2448
-25.9236
-24.1565
-21.9224
-19.2173
-16.0658
-12.5363
-8.75677
-4.92742
-1.32044
1.74322
3.95071
5.08654
5.1272
4.27819
2.8815
-7.26872
-7.41974
-7.5295
-7.59856
-7.63016
-7.6297
-7.60386
-7.55986
-7.50487
-7.44567
-7.38844
-7.33876
-7.3017
-7.28195
-7.28392
-7.31197
-7.37045
-7.46385
-7.5969
-7.77458
-8.00213
-8.28506
-8.62903
-9.03978
-9.52296
-10.0839
-10.7274
-11.4573
-12.2763
-13.1852
-14.1831
-15.2663
-16.4288
-17.661
-18.9504
-20.2806
-21.6322
-22.982
-24.3039
-25.5689
-26.7456
-27.8008
-28.7002
-29.4101
-29.8964
-30.1245
-30.058
-29.654
-28.8658
-27.6538
-25.9798
-23.8114
-21.1299
-17.9423
-14.2982
-10.3094
-6.16878
-2.15831
1.36577
4.0274
5.53021
5.78015
4.95948
3.44737
-8.00437
-8.17283
-8.29136
-8.36025
-8.38321
-8.36672
-8.3189
-8.2485
-8.1642
-8.07404
-7.98529
-7.90439
-7.83703
-7.78835
-7.76311
-7.76582
-7.80097
-7.87313
-7.98701
-8.14758
-8.36003
-8.6298
-8.96251
-9.36384
-9.83943
-10.3946
-11.034
-11.7617
-12.5803
-13.4909
-14.4927
-15.5824
-16.7542
-17.9991
-19.305
-20.6565
-22.0346
-23.4171
-24.7787
-26.0911
-27.3237
-28.4438
-29.417
-30.209
-30.785
-31.1095
-31.1456
-30.8523
-30.1785
-29.0767
-27.5012
-25.4086
-22.766
-19.562
-15.8257
-11.6485
-7.20996
-2.79458
1.2124
4.37245
6.2996
6.81128
6.04788
4.42043
-8.78634
-8.97653
-9.10542
-9.17308
-9.18407
-9.14641
-9.07023
-8.96635
-8.84532
-8.71683
-8.58944
-8.47054
-8.36653
-8.28303
-8.22506
-8.19732
-8.20435
-8.25069
-8.34103
-8.48022
-8.67333
-8.92568
-9.24278
-9.63019
-10.0934
-10.6377
-11.2677
-11.9873
-12.7991
-13.7044
-14.7025
-15.7902
-16.9621
-18.2097
-19.5214
-20.8824
-22.2745
-23.6764
-25.0636
-26.4089
-27.6825
-28.8524
-29.8849
-30.7452
-31.398
-31.8067
-31.9331
-31.7361
-31.1659
-30.167
-28.6867
-26.6707
-24.072
-20.8614
-17.0457
-12.6934
-7.96505
-3.14034
1.37383
5.07956
7.49454
8.3291
7.6593
5.91869
-9.62457
-9.84192
-9.98292
-10.0476
-10.042
-9.97639
-9.86369
-9.71748
-9.55077
-9.37524
-9.20097
-9.03649
-8.8889
-8.76428
-8.66789
-8.60451
-8.57866
-8.59479
-8.65745
-8.77128
-8.9412
-9.17232
-9.46994
-9.83947
-10.2862
-10.8153
-11.4311
-12.1376
-12.9373
-13.8314
-14.8192
-15.8979
-17.0621
-18.3038
-19.6119
-20.9721
-22.367
-23.7762
-25.176
-26.5403
-27.8402
-29.0446
-30.1207
-31.0337
-31.7479
-32.2257
-32.4273
-32.3101
-31.8253
-30.912
-29.5114
-27.5618
-25.0005
-21.7801
-17.8851
-13.3589
-8.33888
-3.09283
1.95868
6.26328
9.23783
10.4671
9.9365
8.08767
-10.5324
-10.7838
-10.9387
-10.9977
-10.9688
-10.8661
-10.7063
-10.5067
-10.2834
-10.0505
-9.81992
-9.60137
-9.4027
-9.23034
-9.0897
-8.98553
-8.92221
-8.90401
-8.93518
-9.02013
-9.16347
-9.37007
-9.64499
-9.99335
-10.4203
-10.9306
-11.5286
-12.2179
-13.0011
-13.8792
-14.8516
-15.9155
-17.0657
-18.2945
-19.5912
-20.942
-22.3304
-23.7364
-25.1374
-26.5081
-27.8206
-29.0447
-30.1483
-31.0973
-31.8556
-32.3848
-32.6434
-32.5865
-32.1639
-31.3135
-29.9667
-28.0556
-25.5099
-22.2616
-18.2712
-13.556
-8.22708
-2.53438
3.09584
8.06297
11.6806
13.3901
13.0559
11.1074
-11.5279
-11.8222
-11.9927
-12.0411
-11.9797
-11.8274
-11.6066
-11.3394
-11.0461
-10.7436
-10.446
-10.164
-9.90613
-9.67917
-9.48845
-9.3385
-9.23343
-9.17715
-9.17352
-9.22657
-9.34057
-9.52004
-9.76971
-10.0944
-10.4989
-10.9879
-11.5653
-12.2346
-12.9981
-13.8567
-14.8099
-15.8547
-16.9862
-18.1968
-19.4761
-20.8109
-22.1851
-23.5794
-24.972
-26.3382
-27.651
-28.8811
-29.9969
-30.965
-31.7491
-32.3099
-32.6043
-32.5846
-32.1975
-31.3801
-30.0548
-28.1445
-25.5695
-22.253
-18.1318
-13.1918
-7.51582
-1.33129
4.93721
10.6475
15.0088
17.302
17.2369
15.2019
-12.636
-12.9845
-13.1715
-13.2018
-13.0938
-12.8746
-12.5742
-12.2215
-11.8417
-11.4552
-11.078
-10.7222
-10.3967
-10.1082
-9.86164
-9.66126
-9.5106
-9.41304
-9.3719
-9.39071
-9.47331
-9.62378
-9.84646
-10.1458
-10.5263
-10.9923
-11.5474
-12.1948
-12.9367
-13.7737
-14.7052
-15.7282
-16.8378
-18.0266
-19.2844
-20.5984
-21.9528
-23.3289
-24.7054
-26.0582
-27.3609
-28.5847
-29.6985
-30.6692
-31.4605
-32.0321
-32.3388
-32.3299
-31.948
-31.1265
-29.7826
-27.8267
-25.1672
-21.7148
-17.3954
-12.1697
-6.08172
0.667187
7.66047
14.2209
19.4524
22.4579
22.7549
20.6535
-13.8918
-14.309
-14.5118
-14.511
-14.3356
-14.025
-13.6202
-13.1588
-12.6721
-12.1843
-11.7135
-11.2726
-10.8706
-10.5135
-10.2059
-9.95091
-9.75146
-9.61013
-9.52953
-9.51257
-9.56252
-9.68297
-9.87782
-10.1511
-10.507
-10.9492
-11.4814
-12.1063
-12.8258
-13.6403
-14.549
-15.549
-16.6352
-17.8002
-19.0341
-20.3242
-21.655
-23.0082
-24.3629
-25.6953
-26.9794
-28.1864
-29.2854
-30.2432
-31.0235
-31.5845
-31.8786
-31.8514
-31.4404
-30.5728
-29.1616
-27.1031
-24.2924
-20.624
-16.0073
-10.3901
-3.79242
3.62883
11.4709
19.0274
25.2953
29.1789
29.9608
27.8235
-15.3459
-15.8505
-16.0645
-16.0107
-15.7363
-15.2991
-14.7559
-14.1557
-13.5368
-12.9275
-12.3473
-11.8093
-11.3217
-10.8896
-10.516
-10.2031
-9.95255
-9.76588
-9.64481
-9.59147
-9.60848
-9.69887
-9.866
-10.1135
-10.445
-10.864
-11.3737
-11.9765
-12.674
-13.4664
-14.3526
-15.3295
-16.392
-17.5328
-18.7418
-20.0065
-21.3117
-22.6391
-23.968
-25.2748
-26.5333
-27.7148
-28.7879
-29.7186
-30.47
-30.9995
-31.2556
-31.179
-30.7013
-29.742
-28.206
-25.978
-22.9358
-18.9561
-13.9272
-7.77628
-0.509518
7.73583
16.6003
25.3552
32.8869
37.8738
39.3098
37.1857
-17.0743
-17.6896
-17.9015
-17.757
-17.334
-16.7192
-15.9912
-15.2131
-14.431
-13.6765
-12.9696
-12.3221
-11.7403
-11.2272
-10.784
-10.4109
-10.1081
-9.8757
-9.71431
-9.62514
-9.61004
-9.67138
-9.81199
-10.035
-10.3435
-10.7408
-11.2295
-11.8117
-12.4886
-13.2604
-14.1254
-15.0805
-16.1204
-17.2376
-18.4222
-19.6614
-20.9402
-22.2402
-23.5408
-24.8181
-26.0456
-27.1942
-28.2316
-29.1226
-29.8285
-30.3055
-30.498
-30.3403
-29.756
-28.6553
-26.9316
-24.4578
-21.0918
-16.6891
-11.1136
-4.2661
3.87234
13.1767
23.2997
33.5333
42.6506
49.0649
51.4046
49.3807
-19.1947
-19.9474
-20.1257
-19.8242
-19.1745
-18.307
-17.3303
-16.324
-15.3412
-14.4148
-13.5627
-12.7934
-12.1099
-11.5116
-10.9967
-10.5629
-10.2084
-9.93143
-9.73135
-9.60828
-9.56322
-9.59784
-9.71433
-9.9153
-10.2035
-10.5815
-11.0518
-11.6159
-12.2749
-13.0284
-13.8746
-14.8101
-15.8294
-16.9248
-18.0861
-19.3008
-20.5533
-21.8255
-23.0961
-24.3412
-25.5336
-26.6431
-27.6363
-28.476
-29.1211
-29.5251
-29.6288
-29.3579
-28.6262
-27.332
-25.3548
-22.5524
-18.7607
-13.8106
-7.53682
0.193463
9.43412