# vtk DataFile Version 2.0
Lid-driven cavity
ASCII
DATASET STRUCTURED_POINTS
DIMENSIONS 64 64 1
ORIGIN 0.0078125 0.0078125 0
SPACING 0.015625 0.015625 1
POINT_DATA 4096
SCALARS pressure double 1
LOOKUP_TABLE default
22.8421
22.8232
22.7738
22.7051
22.6277
22.5498
22.4769
22.4126
22.3589
22.317
22.2875
22.2705
22.2662
22.2747
22.2964
22.3317
22.3811
22.4455
22.5258
22.6228
22.7377
22.8714
23.0247
23.1983
23.3927
23.608
23.8441
24.1002
24.3753
24.6677
24.9752
25.295
25.6237
25.9576
26.2921
26.6224
26.9434
27.2496
27.5356
27.7964
28.027
28.2234
28.3821
28.5008
28.5781
28.6139
28.6093
28.5666
28.4892
28.3815
28.2486
28.0963
27.9307
27.758
27.5845
27.4165
27.2597
27.1196
27.0014
26.9094
26.8472
26.8162
26.8139
26.8297
22.861
22.8418
22.7998
22.743
22.6792
22.6145
22.5535
22.4994
22.4543
22.4194
22.3954
22.3829
22.3821
22.3934
22.417
22.4536
22.5037
22.568
22.6474
22.7428
22.855
22.9849
23.1333
23.3007
23.4875
23.6939
23.9196
24.1639
24.4258
24.7037
24.9955
25.2985
25.6097
25.9254
26.2415
26.5534
26.8564
27.1454
27.4153
27.6616
27.8796
28.0656
28.2164
28.33
28.4052
28.4419
28.4413
28.4054
28.3377
28.2421
28.1236
27.9873
27.8389
27.6842
27.5289
27.3785
27.2382
27.1129
27.0069
26.9237
26.8661
26.835
26.8295
26.8455
22.9112
22.8834
22.8404
22.788
22.7315
22.6753
22.6229
22.5768
22.5388
22.5099
22.491
22.4826
22.4849
22.4984
22.5235
22.5607
22.6106
22.674
22.7516
22.8443
22.9529
23.0782
23.2209
23.3816
23.5607
23.7583
23.974
24.2075
24.4576
24.7229
25.0015
25.2907
25.5878
25.8893
26.1913
26.4895
26.7792
27.0556
27.3141
27.55
27.759
27.9377
28.0829
28.1927
28.2661
28.303
28.3045
28.2729
28.2113
28.1236
28.0145
27.889
27.7525
27.6103
27.4677
27.3299
27.2014
27.0866
26.9891
26.9121
26.858
26.8282
26.8234
26.8438
22.9823
22.9401
22.8905
22.837
22.783
22.7315
22.6847
22.6445
22.6121
22.5883
22.5737
22.5686
22.5734
22.5884
22.6142
22.6513
22.7001
22.7616
22.8364
22.9254
23.0294
23.1492
23.2856
23.439
23.61
23.7987
24.005
24.2284
24.4679
24.7223
24.9898
25.268
25.5541
25.8449
26.1365
26.4249
26.7055
26.9737
27.2247
27.454
27.6576
27.8317
27.9735
28.081
28.1531
28.1899
28.1926
28.1632
28.1049
28.0217
27.9181
27.7991
27.6699
27.5356
27.4011
27.2713
27.1504
27.0422
26.9501
26.877
26.825
26.7961
26.7918
26.8143
23.0638
23.0041
22.9443
22.886
22.8311
22.7813
22.7378
22.7016
22.6733
22.6533
22.6418
22.6392
22.6457
22.6615
22.6871
22.723
22.7698
22.8282
22.8991
22.9833
23.0816
23.1949
23.324
23.4696
23.632
23.8117
24.0087
24.2224
24.4524
24.6973
24.9555
25.2249
25.5027
25.7858
26.0706
26.3528
26.6281
26.8917
27.139
27.3654
27.5666
27.7391
27.8798
27.9867
28.0587
28.0957
28.099
28.0706
28.0138
27.9326
27.8314
27.7154
27.5896
27.4592
27.3289
27.2032
27.0862
26.9813
26.8917
26.8199
26.7682
26.7386
26.7332
26.7544
23.1467
23.0682
22.9959
22.9305
22.8724
22.8221
22.7799
22.746
22.7203
22.7028
22.6935
22.6923
22.6993
22.7148
22.7391
22.7728
22.8163
22.8705
22.9362
23.0143
23.1057
23.2114
23.3322
23.4689
23.6222
23.7925
23.9799
24.1844
24.4054
24.6418
24.8923
25.1547
25.4266
25.7047
25.9855
26.2648
26.5381
26.8008
27.0479
27.2748
27.4771
27.651
27.7933
27.9017
27.9751
28.0134
28.0176
27.99
27.9337
27.8527
27.7518
27.6361
27.5107
27.3808
27.2511
27.1261
27.0096
26.9049
26.8149
26.7421
26.6886
26.6564
26.6476
26.6646
23.2233
23.1254
23.0398
22.9658
22.9028
22.8505
22.808
22.7749
22.7505
22.7343
22.7258
22.7248
22.7313
22.7452
22.767
22.7969
22.8358
22.8843
22.9434
23.0139
23.097
23.1936
23.3049
23.4317
23.5749
23.7351
23.9127
24.1078
24.3201
24.5487
24.7925
25.0495
25.3172
25.5926
25.872
26.1513
26.4259
26.6909
26.9414
27.1723
27.3792
27.5578
27.7048
27.8176
27.8947
27.9361
27.9424
27.9161
27.8601
27.7788
27.6768
27.5594
27.432
27.2999
27.1679
27.0404
26.9214
26.814
26.7209
26.6445
26.5869
26.5501
26.5359
26.5464
23.2869
23.1697
23.0702
22.9868
22.9181
22.8626
22.8187
22.7851
22.7607
22.7445
22.7356
22.7335
22.7379
22.7489
22.7666
22.7914
22.824
22.8652
22.9159
22.9772
23.0502
23.1362
23.2364
23.3519
23.4837
23.6328
23.7998
23.985
24.1883
24.4093
24.6469
24.8995
25.1646
25.4391
25.7193
26.0012
26.28
26.5507
26.8081
27.0469
27.2621
27.4494
27.6047
27.7253
27.8095
27.8565
27.8672
27.8436
27.7889
27.7073
27.6037
27.4836
27.3526
27.2161
27.0792
26.9467
26.8222
26.7093
26.6104
26.528
26.4641
26.4204
26.399
26.4014
23.3313
23.1951
23.0817
22.9886
22.9136
22.854
22.8078
22.7727
22.7472
22.7296
22.7189
22.7142
22.7152
22.7215
22.7335
22.7514
22.7759
22.8079
22.8483
22.8984
22.9594
23.0328
23.12
23.2223
23.3411
23.4775
23.6326
23.8069
24.0006
24.2136
24.445
24.6936
24.9569
25.2318
25.5147
25.8015
26.0873
26.367
26.6349
26.8856
27.1136
27.3138
27.4821
27.615
27.7102
27.7667
27.7851
27.767
27.7155
27.6348
27.5301
27.4069
27.2713
27.1288
26.9851
26.845
26.7126
26.5914
26.4841
26.3932
26.3206
26.2682
26.2377
26.2309
23.3507
23.196
23.0688
22.9661
22.8844
22.8203
22.7709
22.7334
22.7055
22.6854
22.6714
22.6627
22.6585
22.6585
22.6629
22.6719
22.6862
22.7068
22.7347
22.7712
22.8179
22.8763
22.9481
23.035
23.1385
23.2603
23.4015
23.5631
23.7458
23.9497
24.1743
24.4185
24.6803
24.9564
25.2433
25.5369
25.8324
26.1242
26.4066
26.6736
26.9191
27.1376
27.3242
27.4747
27.5864
27.6575
27.6881
27.6794
27.6343
27.5571
27.4527
27.3272
27.1866
27.0374
26.8852
26.7354
26.5927
26.4606
26.3423
26.2404
26.1568
26.0936
26.0526
26.0354
23.3396
23.1668
23.0263
22.914
22.8255
22.7565
22.7033
22.6625
22.6312
22.6072
22.5886
22.5741
22.5629
22.5547
22.5493
22.5472
22.549
22.5556
22.5683
22.5886
22.6181
22.6587
22.7123
22.7808
22.8662
22.9705
23.0952
23.2418
23.4113
23.6041
23.8202
24.0589
24.3186
24.596
24.8877
25.1898
25.4972
25.8044
26.1052
26.3931
26.6616
26.9044
27.1157
27.2906
27.4254
27.5176
27.5665
27.5728
27.5389
27.4688
27.3677
27.2414
27.0968
26.9404
26.7787
26.6177
26.4623
26.317
26.1851
26.0695
25.9726
25.8966
25.8434
25.8147
23.2925
23.1023
22.9489
22.8272
22.7318
22.6577
22.6001
22.5551
22.5193
22.4901
22.4652
22.4432
22.4231
22.4044
22.387
22.3713
22.3578
22.3477
22.3422
22.3431
22.3521
22.3713
22.4031
22.4497
22.5134
22.5965
22.7012
22.8293
22.9823
23.1611
23.3662
23.5974
23.8534
24.1312
24.4278
24.7392
25.0605
25.3861
25.7093
26.0233
26.3208
26.5947
26.8382
27.0456
27.2117
27.3333
27.4084
27.437
27.4208
27.3634
27.2697
27.1459
26.999
26.8362
26.6646
26.4909
26.3211
26.1601
26.012
25.8801
25.7675
25.6765
25.6093
25.5681
23.2039
22.9969
22.8311
22.7004
22.5982
22.5186
22.4562
22.4061
22.3647
22.3288
22.296
22.2646
22.2335
22.202
22.17
22.1377
22.1059
22.0757
22.0486
22.0262
22.0108
22.0047
22.0103
22.0305
22.0679
22.1253
22.2054
22.3105
22.4427
22.6034
22.7938
23.0141
23.2637
23.54
23.8405
24.1614
24.4981
24.8446
25.1942
25.5395
25.8726
26.1853
26.4698
26.7189
26.9264
27.0874
27.1987
27.259
27.2692
27.232
27.152
27.0354
26.8894
26.7219
26.5409
26.354
26.1681
25.9891
25.8223
25.6715
25.5405
25.4321
25.3492
25.2939
23.0686
22.8456
22.668
22.5285
22.4196
22.3343
22.2663
22.2103
22.162
22.118
22.0755
22.0327
21.9882
21.9412
21.8917
21.8397
21.7862
21.7322
21.6793
21.6294
21.5849
21.5484
21.5227
21.5111
21.5166
21.5427
21.5924
21.6687
21.7744
21.9117
22.0823
22.287
22.5261
22.7978
23.1
23.4296
23.7822
24.1518
24.5315
24.9134
25.2889
25.6488
25.9841
26.2859
26.5464
26.7589
26.9186
27.0226
27.0703
27.0632
27.0054
26.9028
26.7628
26.5939
26.405
26.2048
26.0017
25.803
25.6148
25.4423
25.2901
25.1619
25.0609
24.9901
22.8812
22.6431
22.4543
22.3065
22.1908
22.0995
22.0253
21.9624
21.906
21.8523
21.7982
21.7416
21.6812
21.6159
21.5456
21.4705
21.3912
21.3091
21.2258
21.1433
21.0643
20.9916
20.9286
20.8787
20.8456
20.8333
20.8455
20.886
20.9582
21.0652
21.2093
21.3924
21.6154
21.8777
22.1782
22.5144
22.8822
23.2761
23.6891
24.1128
24.5377
24.9538
25.3505
25.7172
26.0441
26.3226
26.5454
26.7075
26.8065
26.8424
26.8181
26.7388
26.612
26.4467
26.2529
26.0407
25.82
25.5998
25.3878
25.1909
25.0145
24.8635
24.7422
24.6538
22.6368
22.3845
22.1853
22.0293
21.907
21.8092
21.7282
21.6574
21.5914
21.5262
21.4584
21.3857
21.3064
21.2197
21.1251
21.0228
20.9135
20.7984
20.6794
20.5586
20.4388
20.3233
20.2157
20.1199
20.0403
19.9814
19.9477
19.9437
19.9738
20.0419
20.1515
20.3053
20.5051
20.7515
21.0449
21.384
21.7652
22.1835
22.632
23.1019
23.5832
24.0646
24.5339
24.979
25.3874
25.7481
26.0511
26.2889
26.4562
26.5511
26.5746
26.531
26.4274
26.2732
26.0793
25.8577
25.6199
25.3771
25.1393
24.915
24.7114
24.5346
24.3899
24.2815
22.3305
22.0652
21.8561
21.6925
21.5634
21.4589
21.3702
21.2902
21.2131
21.1345
21.0507
20.9592
20.8581
20.7465
20.6236
20.4897
20.3455
20.1921
20.0314
19.8658
19.6982
19.5322
19.3718
19.2215
19.0862
18.9711
18.8815
18.823
18.8008
18.8199
18.8851
19
19.1678
19.3901
19.6693
20.0057
20.3967
20.838
21.3228
21.8425
22.3863
22.9419
23.4957
24.0331
24.5395
25.0006
25.4035
25.7371
25.9931
26.1664
26.2558
26.2639
26.1967
26.0639
25.8773
25.6505
25.3975
25.132
24.8665
24.612
24.3779
24.1719
24.0007
23.8695
21.9578
21.6807
21.4626
21.2917
21.1558
21.0439
20.9466
20.8562
20.7664
20.6723
20.57
20.4568
20.3307
20.1903
20.035
19.8647
19.6801
19.4824
19.2735
19.0558
18.8326
18.6076
18.3852
18.1705
17.9691
17.7868
17.6301
17.5054
17.4191
17.3776
17.3867
17.4516
17.5768
17.7652
18.0209
18.3469
18.7422
19.2032
19.7237
20.2951
20.9065
21.5445
22.1939
22.8381
23.4596
24.0409
24.5653
25.0178
25.3859
25.661
25.8383
25.9178
25.9043
25.8067
25.6377
25.4126
25.1479
24.8605
24.5661
24.2788
24.0108
23.772
23.5706
23.4133
21.5146
21.2271
21.0009
20.823
20.6801
20.5604
20.4535
20.3513
20.2469
20.135
20.0117
19.8738
19.719
19.5458
19.3534
19.1416
18.9109
18.6624
18.3981
18.1205
17.8329
17.5394
17.245
16.9551
16.676
16.4145
16.178
15.9741
15.8105
15.695
15.6349
15.637
15.7072
15.8501
16.071
16.377
16.7688
17.2439
17.7972
18.4206
19.1028
19.8299
20.5852
21.35
22.104
22.8261
23.4953
24.0919
24.5989
25.0026
25.2939
25.4693
25.5308
25.4864
25.3489
25.1352
24.8647
24.5578
24.2342
23.9119
23.6066
23.3309
23.0954
22.908
20.9975
20.701
20.4676
20.2831
20.1331
20.0048
19.8873
19.7717
19.6508
19.5189
19.3717
19.2057
19.0185
18.8082
18.5739
18.315
18.0321
17.726
17.3986
17.0526
16.6914
16.3194
15.9419
15.5651
15.1959
14.8421
14.5121
14.2148
13.9594
13.7553
13.6114
13.5363
13.5376
13.6219
13.795
14.069
14.4471
14.9285
15.5094
16.1823
16.9364
17.7572
18.627
19.525
20.428
21.3112
22.1492
22.9171
23.5921
24.1546
24.5901
24.8901
25.0529
25.0842
24.9964
24.8075
24.5399
24.2179
23.8661
23.5072
23.1612
22.8446
22.5704
22.3486
20.4035
20.0997
19.8601
19.6692
19.5119
19.3744
19.2451
19.1145
18.9751
18.8207
18.6467
18.4493
18.2258
17.974
17.6926
17.381
17.0392
16.6683
16.2699
15.8466
15.4021
14.9411
14.4691
13.9931
13.5207
13.0607
12.6227
12.217
11.8543
11.5458
11.3022
11.1343
11.0515
11.0625
11.1741
11.4018
11.7537
12.231
12.8315
13.5489
14.3729
15.2893
16.2794
17.3207
18.3875
19.4513
20.4818
21.4486
22.3223
23.0766
23.6901
24.148
24.4433
24.578
24.5628
24.4165
24.1639
23.8339
23.4565
23.0602
22.6706
22.3086
21.9908
21.7297
19.7306
19.4212
19.1763
18.9795
18.8146
18.6671
18.5248
18.3776
18.2176
18.0382
17.8344
17.6022
17.3383
17.0404
16.7068
16.3366
15.9295
15.4864
15.0087
14.4992
13.9615
13.4006
12.8225
12.2346
11.6456
11.0652
10.5042
9.97456
9.48863
9.05935
8.69969
8.42234
8.2392
8.16094
8.19644
8.36202
8.67315
9.13349
9.74276
10.4964
11.3853
12.3956
13.5083
14.7
15.9424
17.2036
18.4487
19.6412
20.7449
21.7257
22.554
23.207
23.6707
23.9417
24.0275
23.9463
23.7251
23.3973
22.9991
22.566
22.1301
21.7184
21.3518
21.0457
18.9773
18.6641
18.415
18.2127
18.04
17.8818
17.7253
17.5598
17.3771
17.1702
16.9336
16.6631
16.3549
16.0064
15.6154
15.1808
14.7019
14.1793
13.6143
13.0096
12.3689
11.6973
11.0015
10.2893
9.57029
8.85532
8.15659
7.48744
6.86216
6.29566
5.80309
5.39948
5.09914
4.91521
4.85899
4.94608
5.2
5.62823
6.23287
7.01142
7.9564
9.05497
10.2886
11.6332
13.0588
14.5306
16.0092
17.4523
18.8162
20.0584
21.1399
22.0283
22.7006
23.1459
23.3665
23.3784
23.2098
22.8983
22.4868
22.019
21.5351
21.0694
20.6485
20.2915
18.1432
17.8283
17.5761
17.3686
17.1879
17.0183
16.8463
16.661
16.4535
16.2166
15.9444
15.6322
15.2759
14.8724
14.4192
13.9145
13.3575
12.7484
12.0884
11.3799
10.6267
9.8343
9.00956
8.16115
7.2994
6.43633
5.5855
4.76193
3.98176
3.262
2.62012
2.07359
1.63931
1.33307
1.16888
1.16139
1.34055
1.71974
2.30383
3.09285
4.08147
5.25852
6.60656
8.10157
9.71284
11.4032
13.1295
14.844
16.4955
18.0326
19.4058
20.5717
21.4962
22.1585
22.5531
22.6918
22.6022
22.3256
21.9117
21.4135
20.8809
20.3573
19.8763
19.4616
17.229
16.9142
16.6601
16.4478
16.259
16.0773
15.8887
15.682
15.4478
15.1787
14.8682
14.5112
14.1032
13.6407
13.1206
12.5407
11.8999
11.1979
10.4356
9.61545
8.74123
7.81854
6.85474
5.85911
4.8429
3.81927
2.80321
1.8114
0.861935
-0.0260149
-0.832615
-1.53787
-2.12217
-2.56697
-2.85539
-2.97243
-2.88592
-2.57407
-2.02839
-1.24605
-0.229736
1.01168
2.46255
4.09991
5.89314
7.80378
9.78587
11.7867
13.7485
15.6104
17.3121
18.7976
20.0198
20.9453
21.5582
21.8629
21.8845
21.6664
21.265
20.7433
20.1629
19.5779
19.0308
18.5515
16.2361
15.9236
15.6686
15.4521
15.2551
15.0606
14.8546
14.6251
14.3625
14.059
13.7078
13.3033
12.8406
12.3154
11.7244
11.0648
10.3351
9.53454
8.66383
7.72515
6.72237
5.66124
4.54954
3.3972
2.21635
1.02134
-0.171403
-1.3435
-2.47491
-3.54428
-4.52937
-5.40761
-6.15669
-6.75523
-7.18351
-7.42426
-7.44712
-7.22133
-6.73322
-5.97683
-4.95182
-3.66419
-2.12702
-0.361291
1.60352
3.72893
5.96731
8.26233
10.5501
12.7612
14.824
16.6692
18.2347
19.4719
20.3513
20.8667
21.0373
20.9067
20.5372
20.0023
19.3766
18.7275
18.1086
17.557
15.167
14.8588
14.6043
14.384
14.1788
13.9712
13.7468
13.4934
13.2011
12.8616
12.4677
12.0134
11.4933
10.9026
10.2374
9.49454
8.6718
7.76817
6.78401
5.72131
4.58395
3.37783
2.11115
0.794476
-0.559149
-1.93423
-3.31289
-4.67505
-5.99875
-7.26043
-8.4355
-9.49884
-10.4254
-11.1911
-11.7732
-12.1514
-12.2983
-12.1765
-11.7656
-11.0558
-10.0435
-8.7312
-7.12886
-5.25449
-3.13526
-0.808359
1.67845
4.26666
6.8877
9.46457
11.9149
14.1552
16.1074
17.7052
18.9019
19.6769
20.04
20.0316
19.7183
19.1841
18.5182
17.8034
17.1068
16.4751
14.0254
13.7234
13.4706
13.2472
13.0339
12.813
12.5697
12.2916
11.9685
11.5917
11.1538
10.648
10.0687
9.41039
8.6687
7.83989
6.92127
5.91137
4.81023
3.61966
2.34349
0.987809
-0.438806
-1.92515
-3.45729
-5.01858
-6.58972
-8.14899
-9.6725
-11.1346
-12.5083
-13.7662
-14.8804
-15.8242
-16.5719
-17.1003
-17.3838
-17.3817
-17.0672
-16.4251
-15.4482
-14.1355
-12.4929
-10.5348
-8.28481
-5.77743
-3.0589
-0.188053
2.76369
5.71329
8.56863
11.2328
13.6103
15.6153
17.1809
18.2678
18.8716
19.0257
18.7983
18.2829
17.5845
16.8038
16.0243
15.3042
12.8158
12.5219
12.272
12.0462
11.825
11.5908
11.3283
11.0252
10.6708
10.2561
9.77324
9.21523
8.57563
7.84869
7.0293
6.11322
5.09723
3.97943
2.75953
1.43913
0.0220018
-1.48558
-3.07468
-4.73345
-6.44711
-8.19787
-9.96509
-11.7254
-13.4531
-15.1205
-16.6984
-18.157
-19.466
-20.596
-21.5186
-22.2078
-22.6383
-22.769
-22.5682
-22.0144
-21.0962
-19.8087
-18.1536
-16.1408
-13.7894
-11.1298
-8.20491
-5.0719
-1.80282
1.51544
4.78283
7.88992
10.7241
13.1786
15.163
16.6153
17.5118
17.8739
17.7673
17.2935
16.5736
15.7286
14.8613
14.0445
11.5434
11.2595
11.0136
10.7862
10.5577
10.3104
10.029
9.70081
9.31507
8.86249
8.3348
7.72451
7.02475
6.22918
5.33217
4.3289
3.21566
1.99009
0.651561
-0.798553
-2.3565
-4.01588
-5.76737
-7.59855
-9.49379
-11.4342
-13.3979
-15.3599
-17.2927
-19.1669
-20.9511
-22.6133
-24.121
-25.4421
-26.546
-27.4039
-27.9894
-28.2635
-28.1905
-27.744
-26.9071
-25.6708
-24.0324
-21.9967
-19.5776
-16.8001
-13.7021
-10.337
-6.77487
-3.10389
0.570485
4.1283
7.4408
10.3796
12.8286
14.699
15.9424
16.5623
16.6168
16.2122
15.4854
14.5796
13.6206
12.6986
10.2143
9.94202
9.70143
9.47332
9.23818
8.97833
8.67856
8.32598
7.90962
7.41991
6.84825
6.18672
5.42795
4.56509
3.59194
2.50316
1.29449
-0.0368347
-1.49182
-3.06928
-4.76552
-6.57402
-8.48509
-10.4858
-12.5596
-14.6867
-16.844
-19.0049
-21.1405
-23.2194
-25.2085
-27.0737
-28.7804
-30.2944
-31.5828
-32.6143
-33.3606
-33.7856
-33.8514
-33.5283
-32.7934
-31.6332
-30.0406
-28.0152
-25.565
-22.7085
-19.4772
-15.9184
-12.0979
-8.10202
-4.03853
-0.0351209
3.7653
7.21331
10.1661
12.5039
14.1487
15.0793
15.3399
15.0371
14.3218
13.3613
12.3075
11.2719
8.83537
8.57607
8.34189
8.11398
7.87313
7.60176
7.28468
6.90892
6.46336
5.93817
5.32441
4.61377
3.79839
2.87094
1.82465
0.653663
-0.646774
-2.07988
-3.647
-5.34716
-7.17673
-9.12906
-11.1942
-13.3586
-15.605
-17.9128
-20.2575
-22.6114
-24.944
-27.2223
-29.4115
-31.4756
-33.3783
-35.0835
-36.5562
-37.7633
-38.674
-39.2547
-39.4669
-39.2791
-38.6643
-37.603
-36.084
-34.1017
-31.6578
-28.7637
-25.4434
-21.7362
-17.701
-13.4191
-8.99718
-4.56693
-0.282416
3.68777
7.17374
10.0228
12.1215
13.4171
13.9327
13.7688
13.0877
12.0812
10.9309
9.77334
7.41367
7.16854
6.94179
6.71515
6.46974
6.18822
5.85544
5.45842
4.98588
4.42777
3.77484
3.0184
2.15015
1.16223
0.0473899
-1.20077
-2.58748
-4.1164
-5.7892
-7.60514
-9.56066
-11.649
-13.86
-16.1795
-18.5898
-21.0692
-23.5922
-26.13
-28.6507
-31.1199
-33.5013
-35.7573
-37.8499
-39.7415
-41.3954
-42.7767
-43.8529
-44.5914
-44.9547
-44.9102
-44.4293
-43.4868
-42.0664
-40.1579
-37.7568
-34.8673
-31.5045
-27.6986
-23.4993
-18.9799
-14.2419
-9.4171
-4.66655
-0.174921
3.86213
7.25751
9.85821
11.573
12.3952
12.4119
11.7918
10.751
9.50385
8.21633
5.95664
5.72653
5.50816
5.2839
5.03536
4.74546
4.39919
3.98354
3.48712
2.89966
2.21163
1.41395
0.497898
-0.544853
-1.72206
-3.04064
-4.50628
-6.12308
-7.89304
-9.81565
-11.8875
-14.1016
-16.4477
-18.9113
-21.474
-24.1133
-26.8028
-29.5128
-32.21
-34.8589
-37.4217
-39.8597
-42.1334
-44.2039
-46.0331
-47.5847
-48.8246
-49.7206
-50.2367
-50.3405
-50.0024
-49.1943
-47.894
-46.0866
-43.7622
-40.9175
-37.5588
-33.706
-29.3976
-24.6963
-19.6946
-14.5199
-9.33539
-4.33755
0.255071
4.22124
7.3653
9.55091
10.7327
10.9752
10.4472
9.38697
8.04428
6.61915
4.47176
4.25719
4.04799
3.8273
3.5773
3.28126
2.92431
2.49345
1.97717
1.36499
0.647096
-0.185963
-1.14333
-2.23378
-3.46558
-4.84612
-6.38158
-8.07645
-9.93309
-11.9512
-14.1275
-16.4552
-18.9235
-21.5178
-24.219
-27.0042
-29.8462
-32.7142
-35.5741
-38.3891
-41.1204
-43.7282
-46.1718
-48.4113
-50.4075
-52.123
-53.5226
-54.5735
-55.2418
-55.4955
-55.305
-54.6419
-53.4787
-51.7955
-49.5774
-46.8144
-43.5039
-39.6551
-35.2942
-30.4708
-25.2652
-19.7956
-14.2222
-8.74775
-3.60939
0.939566
4.65933
7.36286
8.95708
9.47347
9.07251
8.01101
6.57589
5.00598
2.96638
2.76746
2.56804
2.35216
2.10263
1.80314
1.43898
0.997152
0.466011
-0.165145
-0.90645
-1.76771
-2.75849
-3.88804
-5.1651
-6.59754
-8.19201
-9.95342
-11.8845
-13.9852
-16.2524
-18.6792
-21.255
-23.9646
-26.7888
-29.704
-32.6823
-35.6923
-38.699
-41.6648
-44.5499
-47.3135
-49.9142
-52.311
-54.464
-56.3349
-57.8878
-59.0891
-59.9067
-60.3095
-60.2684
-59.7554
-58.7412
-57.2001
-55.1127
-52.463
-49.2404
-45.4434
-41.0852
-36.2008
-30.8553
-25.1534
-19.2469
-13.3388
-7.67883
-2.54862
1.76841
5.03039
7.08789
7.92813
7.69279
6.65158
5.12914
3.40783
1.44748
1.26389
1.07464
0.864806
0.617945
0.318168
-0.0490465
-0.496736
-1.03672
-1.67997
-2.43697
-3.31792
-4.33284
-5.49143
-6.80292
-8.27569
-9.91684
-11.7317
-13.7234
-15.8922
-18.235
-20.7452
-23.412
-26.2201
-29.1501
-32.1778
-35.2751
-38.4097
-41.5461
-44.6458
-47.6686
-50.5728
-53.3163
-55.8574
-58.1555
-60.1718
-61.8699
-63.2156
-64.1776
-64.7263
-64.8335
-64.4717
-63.6127
-62.2263
-60.2881
-57.7774
-54.6762
-50.9732
-46.6689
-41.7824
-36.3619
-30.4947
-24.319
-18.0311
-11.8871
-6.19088
-1.26699
2.58573
5.15386
6.36863
6.34072
5.34475
3.7422
1.86346
-0.0785669
-0.247645
-0.426559
-0.629103
-0.870866
-1.16727
-1.53267
-1.98021
-2.52195
-3.16923
-3.93294
-4.82375
-5.85214
-7.02834
-8.36208
-9.86224
-11.5364
-13.3903
-15.4275
-17.6486
-20.0507
-22.6272
-25.3675
-28.2562
-31.2736
-34.3955
-37.5931
-40.8339
-44.0819
-47.2981
-50.4416
-53.4702
-56.3413
-59.0127
-61.4433
-63.5939
-65.4277
-66.9102
-68.0104
-68.7
-68.952
-68.7398
-68.0365
-66.8118
-65.0353
-62.6824
-59.7292
-56.1555
-51.9496
-47.1152
-41.6818
-35.7169
-29.3401
-22.7349
-16.1556
-9.92155
-4.39352
0.0727831
3.19393
4.83356
5.05763
4.13531
2.4621
0.420536
-1.60616
-1.76208
-1.93081
-2.12484
-2.35883
-2.64768
-3.00566
-3.44608
-3.98139
-4.62341
-5.38355
-6.27305
-7.30295
-8.48404
-9.82659
-11.34
-13.0324
-14.9099
-16.9765
-19.2331
-21.6771
-24.3022
-27.0977
-30.0483
-33.1343
-36.3312
-39.6101
-42.9382
-46.2792
-49.5937
-52.8405
-55.977
-58.9601
-61.7472
-64.297
-66.57
-68.529
-70.1395
-71.3705
-72.1946
-72.586
-72.5193
-71.969
-70.9066
-69.2986
-67.1156
-64.3292
-60.9118
-56.8408
-52.1052
-46.7155
-40.7175
-34.2082
-27.3525
-20.3952
-13.6627
-7.54503
-2.45225
1.25833
3.37189
3.89484
3.07801
1.34599
-0.863145
-3.1308
-3.27546
-3.43445
-3.61881
-3.84209
-4.11869
-4.46283
-4.88816
-5.40769
-6.03388
-6.77889
-7.65462
-8.6728
-9.84486
-11.1817
-12.6932
-14.3881
-16.273
-18.3522
-20.627
-23.0952
-25.7506
-28.5827
-31.5763
-34.7117
-37.9644
-41.3055
-44.7019
-48.1172
-51.5119
-54.8444
-58.072
-61.1512
-64.0394
-66.6947
-69.0777
-71.1508
-72.8797
-74.2329
-75.1841
-75.708
-75.7807
-75.3781
-74.4736
-73.0353
-71.0278
-68.4193
-65.1767
-61.2679
-56.6683
-51.3703
-45.3972
-38.8208
-31.7821
-24.5089
-17.3255
-10.643
-4.92045
-0.590526
2.04413
2.91487
2.23896
0.462579
-1.91824
-4.64929
-4.78531
-4.93532
-5.10878
-5.31815
-5.57721
-5.90023
-6.30141
-6.79456
-7.39307
-8.11003
-8.95825
-9.9503
-11.0983
-12.414
-13.9077
-15.5888
-17.4643
-19.539
-21.8146
-24.2891
-26.9566
-29.8068
-32.8246
-35.9905
-39.28
-42.6643
-46.1104
-49.5816
-53.0386
-56.4396
-59.7417
-62.9014
-65.8758
-68.6231
-71.1034
-73.2792
-75.116
-76.5823
-77.6518
-78.3004
-78.5049
-78.2426
-77.4889
-76.2148
-74.3826
-71.9562
-68.898
-65.1688
-60.7321
-55.5635
-49.6638
-43.0784
-35.9204
-28.3939
-20.8121
-13.5973
-7.25014
-2.2772
0.92358
2.19297
1.69723
-0.106208
-2.66217
-6.15993
-6.29068
-6.43305
-6.59451
-6.78623
-7.02164
-7.31528
-7.68206
-8.13692
-8.6945
-9.36916
-10.1749
-11.1253
-12.2334
-13.5116
-14.9711
-16.6217
-18.471
-20.5242
-22.7831
-25.2464
-27.9081
-30.7584
-33.7823
-36.9604
-40.2685
-43.6778
-47.1555
-50.665
-54.167
-57.6198
-60.9804
-64.2054
-67.2516
-70.0773
-72.6423
-74.9091
-76.8431
-78.4126
-79.5912
-80.3554
-80.6828
-80.5518
-79.9396
-78.8195
-77.1567
-74.9095
-72.0374
-68.4954
-64.2373
-59.2237
-53.4342
-46.8875
-39.6661
-31.945
-24.0178
-16.3074
-9.34692
-3.71251
0.0975871
1.81872
1.5467
-0.263197
-2.99709
-7.66258
-7.79229
-7.92889
-8.07751
-8.24775
-8.45262
-8.70724
-9.02783
-9.43091
-9.93284
-10.5496
-11.2966
-12.1887
-13.2402
-14.4643
-15.8729
-17.4764
-19.2829
-21.298
-23.524
-25.9596
-28.5993
-31.4333
-34.447
-37.6209
-40.931
-44.3488
-47.8414
-51.3726
-54.903
-58.3912
-61.7944
-65.0691
-68.1724
-71.0624
-73.6991
-76.0448
-78.0648
-79.7273
-81.0052
-81.875
-82.3151
-82.3046
-81.8226
-80.8442
-79.3383
-77.2617
-74.5697
-71.2131
-67.1382
-62.2924
-56.6365
-50.1628
-42.9222
-35.0567
-26.8327
-18.6635
-11.1038
-4.79279
-0.330945
1.89795
1.8983
0.106465
-2.8074
-9.15898
-9.29281
-9.42609
-9.56109
-9.70566
-9.87242
-10.0774
-10.3386
-10.6748
-11.1046
-11.6463
-12.3171
-13.1337
-14.1114
-15.2646
-16.6059
-18.1464
-19.8947
-21.8566
-24.0348
-26.4281
-29.0312
-31.8344
-34.8231
-37.9781
-41.2753
-44.6865
-48.1788
-51.7163
-55.2599
-58.7682
-62.1986
-65.5081
-68.6538
-71.594
-74.2888
-76.7006
-78.7945
-80.5388
-81.9054
-82.8707
-83.4128
-83.5111
-83.1456
-82.2938
-80.9275
-79.0071
-76.482
-73.3003
-69.4021
-64.7243
-59.2103
-52.8284
-45.5981
-37.6255
-29.1438
-20.5476
-12.4016
-5.39893
-0.241818
2.55512
2.88278
1.13835
-1.95664
-10.653
-10.7972
-10.9302
-11.0508
-11.1649
-11.2848
-11.4281
-11.6151
-11.8676
-12.2074
-12.6555
-13.2317
-13.9546
-14.841
-15.9065
-17.1646
-18.6269
-20.3024
-22.1973
-24.3142
-26.6521
-29.2057
-31.9653
-34.9163
-38.0395
-41.3111
-44.7026
-48.1815
-51.712
-55.2552
-58.7701
-62.2143
-65.545
-68.7195
-71.6965
-74.4362
-76.901
-79.0564
-80.8703
-82.3142
-83.3637
-83.9966
-84.1918
-83.9289
-83.1861
-81.938
-80.1508
-77.7732
-74.7474
-71.0091
-66.4862
-61.1075
-54.8192
-47.6104
-39.5509
-30.8364
-21.8341
-13.1082
-5.39517
0.504672
3.9362
4.65416
2.9926
-0.283487
-12.1509
-12.3134
-12.4497
-12.5548
-12.6325
-12.6954
-12.7629
-12.8588
-13.009
-13.239
-13.5736
-14.0356
-14.6459
-15.4233
-16.3845
-17.5439
-18.9137
-20.5032
-22.3185
-24.3623
-26.6336
-29.1269
-31.8323
-34.7351
-37.8162
-41.0515
-44.4127
-47.8675
-51.3801
-54.9118
-58.4219
-61.8682
-65.2083
-68.3998
-71.4015
-74.1738
-76.6795
-78.8838
-80.7548
-82.2637
-83.3853
-84.0966
-84.3758
-84.2016
-83.5515
-82.4003
-80.7163
-78.4544
-75.5559
-71.9507
-67.5569
-62.2911
-56.0797
-48.8836
-40.7365
-31.7943
-22.3907
-13.0787
-4.62737
2.07061
6.2125
7.39415
5.85877
2.40324
-13.6624
-13.8526
-13.9965
-14.0846
-14.1186
-14.1119
-14.0871
-14.0725
-14.0991
-14.1976
-14.3972
-14.7244
-15.2028
-15.8533
-16.6941
-17.7404
-19.0046
-20.4961
-22.2212
-24.1823
-26.3779
-28.8023
-31.4452
-34.292
-37.3229
-40.514
-43.8369
-47.2592
-50.7454
-54.2569
-57.7532
-61.1925
-64.5324
-67.7309
-70.747
-73.5413
-76.0765
-78.3182
-80.2343
-81.7956
-82.9763
-83.7525
-84.1014
-84.0003
-83.4255
-82.3503
-80.743
-78.5614
-75.7457
-72.2287
-67.9256
-62.7344
-56.5639
-49.3493
-41.0896
-31.9003
-22.0771
-12.1536
-2.92044
4.64429
9.5855
11.3178
9.96218
6.3311
-15.201
-15.4306
-15.587
-15.6556
-15.6364
-15.5447
-15.4076
-15.2597
-15.1387
-15.0817
-15.1231
-15.2938
-15.6208
-16.1271
-16.8321
-17.7519
-18.899
-20.2829
-21.9092
-23.78
-25.8932
-28.2427
-30.8176
-33.6028
-36.5783
-39.7199
-42.999
-46.3833
-49.8372
-53.3224
-56.7985
-60.2238
-63.5563
-66.7541
-69.7763
-72.5837
-75.1391
-77.4077
-79.3576
-80.9593
-82.1861
-83.013
-83.4161
-83.3709
-82.8519
-81.8302
-80.2719
-78.1344
-75.359
-71.8721
-67.5918
-62.419
-56.2335
-48.9449
-40.5199
-31.0346
-20.7443
-10.1566
-0.0749358
8.44527
14.2934
16.6812
15.5721
11.7725
-16.7857
-17.0694
-17.2437
-17.2887
-17.2035
-17.007
-16.7331
-16.4251
-16.129
-15.8897
-15.7482
-15.7402
-15.8962
-16.2415
-16.7967
-17.5784
-18.599
-19.8675
-21.3889
-23.1645
-25.1914
-27.4625
-29.9665
-32.6874
-35.6049
-38.6943
-41.9269
-45.2702
-48.6887
-52.1439
-55.5958
-59.0029
-62.3231
-65.5148
-68.5372
-71.3509
-73.9187
-76.2056
-78.1794
-79.8102
-81.0705
-81.9341
-82.3751
-82.3672
-81.8824
-80.8889
-79.3494
-77.2181
-74.4361
-70.9232
-66.5914
-61.34
-55.0558
-47.6117
-38.9381
-29.0733
-18.232
-6.89228
4.13758
13.731
20.6194
23.7908
23.0124
19.0557
-18.4427
-18.7992
-18.9977
-19.0125
-18.8436
-18.5163
-18.0751
-17.5745
-17.0716
-16.6205
-16.2696
-16.0601
-16.0259
-16.1946
-16.5877
-17.2217
-18.1088
-19.2568
-20.6699
-22.348
-24.2873
-26.4795
-28.9123
-31.5689
-34.4285
-37.4657
-40.6517
-43.9536
-47.3358
-50.7602
-54.1864
-57.5732
-60.8787
-64.0612
-67.0799
-69.8953
-72.4699
-74.7684
-76.7578
-78.4077
-79.6897
-80.5762
-81.039
-81.0491
-80.5753
-79.5821
-78.0278
-75.8615
-73.02
-69.4191
-64.9588
-59.5299
-53.0142
-45.2928
-36.253
-25.8857
-14.3663
-2.14127
9.9803
20.8051
28.9034
33.0176
32.6766
28.5801
-20.2087
-20.6616
-20.8903
-20.8644
-20.5874
-20.0956
-19.4481
-18.7152
-17.9684
-17.2726
-16.6843
-16.2501
-16.0075
-15.9856
-16.2064
-16.6859
-17.435
-18.4604
-19.7646
-21.346
-23.1991
-25.3145
-27.6785
-30.2736
-33.0778
-36.0655
-39.207
-42.4696
-45.8173
-49.2119
-52.6133
-55.9802
-59.2707
-62.4431
-65.4564
-68.271
-70.8487
-73.1537
-75.1522
-76.8127
-78.1055
-79.002
-79.4707
-79.4791
-78.992
-77.9692
-76.3632
-74.1164
-71.1578
-67.3982
-62.7233
-57.0106
-50.1285
-41.9491
-32.3697
-21.332
-8.95594
4.34314
17.7576
30.0281
39.5561
44.8145
45.0478
40.837
-22.1349
-22.7146
-22.9785
-22.8939
-22.4738
-21.7723
-20.8696
-19.8565
-18.8217
-17.8443
-16.9889
-16.3073
-15.8394
-15.6153
-15.6562
-15.9771
-16.5871
-17.4908
-18.6884
-20.1766
-21.9479
-23.9912
-26.2916
-28.8301
-31.584
-34.5268
-37.6285
-40.8558
-44.1728
-47.541
-50.9204
-54.2696
-57.5467
-60.7099
-63.7179
-66.5308
-69.1097
-71.4179
-73.4205
-75.0844
-76.3783
-77.2719
-77.7314
-77.7189
-77.1939
-76.11
-74.4128
-72.0357
-68.8978
-64.899
-59.9129
-53.7966
-46.4001
-37.577
-27.2122
-15.2618
-1.79124
12.8384
27.8209
41.8278
53.0776
59.7415
60.7278
56.4399
-24.2958
-25.041
-25.3413
-25.1677
-24.5531
-23.5802
-22.3591
-21.0073
-19.6342
-18.3335
-17.18
-16.2288
-15.5208
-15.0854
-14.9424
-15.1042
-15.5771
-16.363
-17.4595
-18.8608
-20.5572
-22.5357
-24.7797
-27.2688
-29.9794
-32.8841
-35.9523
-39.1503
-42.442
-45.7887
-49.1504
-52.4856
-55.7524
-58.9088
-61.9131
-64.7246
-67.304
-69.6133
-71.6161
-73.2775
-74.5637
-75.4418
-75.8769
-75.8245
-75.2369
-74.0599
-72.2298
-69.6694
-66.2844
-61.9595
-56.5537
-49.8993
-41.8216
-32.1487
-20.742
-7.54395
7.3548
23.6522
40.5718
56.7104
70.0794
78.5004
80.4799
76.1718
-26.8017
-27.7619
-28.0908
-27.7769
-26.8909
-25.5606
-23.9384
-22.1758
-20.406
-18.7375
-17.2531
-16.0114
-15.0513
-14.3993
-14.0719
-14.0775
-14.4189
-15.0943
-16.0982
-17.4215
-19.0523
-20.9753
-23.1721
-25.6209
-28.2967
-31.1714
-34.2138
-37.3897
-40.6627
-43.994
-47.3434
-50.6693
-53.9297
-57.0823
-60.085
-62.8966
-65.4764
-67.7853
-69.7851
-71.4384
-72.7089
-73.5599
-73.9539
-73.8427
-73.1679
-71.8652
-69.8596
-67.0601
-63.3562
-58.6131
-52.6683
-45.3275
-36.3832
-25.63
-12.8958
1.90464
18.6914
37.1147
56.4571
75.2641
91.3064
101.98
105.294
101.059
-29.8229
-31.059
-31.3889
-30.8469
-29.5722
-27.7629
-25.6303
-23.3672
-21.1328
-19.0485
-17.2015
-15.6505
-14.43
-13.5603
-13.0521
-12.9086
-13.1277
-13.7031
-14.6253
-15.8821
-17.4586
-19.3372
-21.4974
-23.9161
-26.5669
-29.4208
-32.4458
-35.6075
-38.8689
-42.1912
-45.534
-48.8557
-52.1139
-55.2659
-58.2694
-61.082
-63.6622
-65.9692
-67.9627
-69.6027
-70.8494
-71.662
-71.9978
-71.8078
-71.021
-69.5601
-67.3356
-64.24
-60.1427
-54.8848
-48.2757
-40.0897
-30.0783
-17.9927
-3.61564
13.1812
32.3491
53.5397
75.9471
98.1475
117.651
131.312
136.482
132.493
-33.6301
-35.2117
-35.4729
-34.5499
-32.7042
-30.2421
-27.4533
-24.5789
-21.8016
-19.251
-17.0121
-15.1371
-13.6527
-12.5691
-11.8887
-11.6076
-11.7171
-12.206
-13.0603
-14.264
-15.7992
-17.6458
-19.7813
-22.1808
-24.8168
-27.6594
-30.6759
-33.8312
-37.0882
-40.4079
-43.7495
-47.0715
-50.331
-53.4853
-56.491
-59.3052
-61.8851
-64.188
-66.1714
-67.7924
-69.0071
-69.7699
-70.0319
-69.7398
-68.8161
-67.1642
-64.6776
-61.2289
-56.6634
-50.7933
-43.3934