# vtk DataFile Version 2.0
Lid-driven cavity
ASCII
DATASET STRUCTURED_POINTS
DIMENSIONS 64 64 1
ORIGIN 0.0078125 0.0078125 0
SPACING 0.015625 0.015625 1
POINT_DATA 4096
SCALARS pressure double 1
LOOKUP_TABLE default
11.1599
11.1457
11.1154
11.0773
11.0382
11.0031
10.975
10.9557
10.9463
10.9472
10.9585
10.9802
11.0121
11.054
11.106
11.1681
11.2401
11.3223
11.4148
11.5177
11.6313
11.7557
11.8909
12.037
12.194
12.3615
12.5392
12.7266
12.9229
13.127
13.338
13.5542
13.7741
13.9959
14.2175
14.4368
14.6513
14.8587
15.0565
15.2425
15.4144
15.5702
15.7082
15.8272
15.9261
16.0046
16.0627
16.1008
16.12
16.1216
16.1074
16.0795
16.0402
15.9921
15.9377
15.8799
15.8212
15.7643
15.7121
15.6672
15.632
15.6088
15.5988
15.6003
11.1741
11.1598
11.1346
11.1042
11.0733
11.0458
11.0241
11.0102
11.0049
11.0089
11.0224
11.0456
11.0784
11.1208
11.1728
11.2345
11.3059
11.387
11.4781
11.5793
11.6907
11.8125
11.9447
12.0872
12.2401
12.4029
12.5754
12.757
12.9469
13.1442
13.3478
13.5562
13.7681
13.9815
14.1946
14.4054
14.6115
14.8108
15.001
15.1799
15.3455
15.4958
15.6294
15.745
15.8419
15.9195
15.978
16.0178
16.0399
16.0456
16.0365
16.0147
15.9823
15.9416
15.8951
15.8452
15.7944
15.7452
15.7
15.661
15.6304
15.6098
15.6002
15.6019
11.2048
11.1847
11.1591
11.1315
11.105
11.0823
11.0654
11.0555
11.0537
11.0605
11.0761
11.1008
11.1345
11.1773
11.2293
11.2906
11.3611
11.4411
11.5307
11.63
11.7391
11.8582
11.9873
12.1263
12.2753
12.4338
12.6016
12.7781
12.9625
13.1541
13.3516
13.5538
13.7592
13.9661
14.1728
14.3771
14.5771
14.7705
14.9551
15.1289
15.2899
15.4363
15.5667
15.6799
15.775
15.8518
15.9104
15.9511
15.975
15.9833
15.9776
15.9598
15.932
15.8965
15.8554
15.8111
15.7659
15.722
15.6815
15.6464
15.6186
15.5995
15.5904
15.5922
11.244
11.215
11.1856
11.1575
11.1326
11.1126
11.0987
11.0919
11.0928
11.1019
11.1194
11.1453
11.1798
11.223
11.2749
11.3355
11.4051
11.4838
11.5716
11.6688
11.7755
11.8919
12.0179
12.1536
12.2988
12.4533
12.6169
12.7889
12.9687
13.1555
13.3482
13.5454
13.746
13.9481
14.1501
14.35
14.5458
14.7352
14.9162
15.0867
15.2448
15.3887
15.5171
15.6286
15.7226
15.7988
15.8572
15.8983
15.923
15.9327
15.9289
15.9135
15.8884
15.856
15.8182
15.7774
15.7356
15.6949
15.6573
15.6244
15.5979
15.5792
15.5695
15.5699
11.2847
11.2456
11.2105
11.1799
11.1547
11.1357
11.1235
11.1188
11.1217
11.1326
11.1515
11.1784
11.2135
11.2568
11.3083
11.3683
11.4367
11.5138
11.5998
11.6948
11.7989
11.9124
12.0353
12.1677
12.3093
12.4602
12.6199
12.7881
12.964
13.1469
13.3358
13.5295
13.7266
13.9255
14.1246
14.3217
14.515
14.7023
14.8815
15.0504
15.2072
15.35
15.4774
15.5883
15.6818
15.7576
15.8158
15.857
15.8819
15.892
15.8889
15.8743
15.8505
15.8193
15.7831
15.7439
15.7037
15.6644
15.6279
15.5956
15.5691
15.5497
15.5384
15.5362
11.3215
11.2722
11.2304
11.1961
11.1693
11.1501
11.1388
11.1352
11.1395
11.1516
11.1714
11.1991
11.2344
11.2776
11.3286
11.3875
11.4546
11.5299
11.6138
11.7063
11.8078
11.9183
12.0381
12.1671
12.3054
12.4528
12.6091
12.7738
12.9466
13.1264
13.3126
13.5038
13.6987
13.8958
14.0934
14.2895
14.482
14.6689
14.8479
15.0168
15.1738
15.3169
15.4447
15.5559
15.6496
15.7256
15.7838
15.8249
15.8497
15.8595
15.8561
15.8413
15.8172
15.7859
15.7496
15.7104
15.6701
15.6306
15.5937
15.5607
15.533
15.5118
15.498
15.4924
11.3501
11.2909
11.2423
11.2036
11.1744
11.1543
11.1429
11.1398
11.1448
11.1576
11.1781
11.206
11.2412
11.2839
11.334
11.3917
11.4571
11.5305
11.612
11.7019
11.8004
11.9079
12.0244
12.1501
12.285
12.4291
12.5823
12.7441
12.9141
13.0917
13.2759
13.4656
13.6596
13.8562
14.0537
14.2502
14.4436
14.6316
14.8121
14.9827
15.1415
15.2864
15.4158
15.5284
15.6234
15.7002
15.7589
15.8
15.8244
15.8336
15.8293
15.8133
15.7879
15.7552
15.7174
15.6766
15.6348
15.5938
15.555
15.5201
15.4901
15.4662
15.4492
15.4399
11.3671
11.2984
11.243
11.1998
11.1679
11.1463
11.1342
11.1311
11.1363
11.1493
11.1699
11.1976
11.2324
11.2743
11.3232
11.3793
11.4427
11.5137
11.5926
11.6796
11.775
11.8791
11.9923
12.1145
12.2461
12.387
12.5372
12.6964
12.8641
13.0399
13.223
13.4121
13.6061
13.8034
14.0022
14.2005
14.3962
14.587
14.7706
14.9446
15.1067
15.255
15.3876
15.503
15.6003
15.6788
15.7387
15.7803
15.8045
15.8129
15.8072
15.7894
15.7618
15.7266
15.6861
15.6425
15.5978
15.5538
15.512
15.4739
15.4407
15.4134
15.3928
15.3794
11.3696
11.292
11.23
11.1823
11.1473
11.1239
11.1109
11.1072
11.1122
11.125
11.1452
11.1724
11.2064
11.247
11.2943
11.3484
11.4095
11.4778
11.5537
11.6375
11.7294
11.83
11.9395
12.0582
12.1863
12.324
12.4712
12.6279
12.7937
12.9681
13.1505
13.3398
13.5347
13.7336
13.9348
14.1363
14.3358
14.5309
14.7193
14.8983
15.0656
15.219
15.3564
15.4762
15.5773
15.6589
15.7209
15.7637
15.7882
15.7959
15.7887
15.7686
15.7381
15.6995
15.6553
15.6077
15.5589
15.5107
15.4647
15.4224
15.385
15.3536
15.3288
15.3114
11.355
11.269
11.2008
11.1486
11.1106
11.0852
11.0709
11.0664
11.0707
11.0829
11.1023
11.1285
11.1612
11.2002
11.2455
11.2972
11.3556
11.4208
11.4933
11.5734
11.6615
11.7581
11.8637
11.9784
12.1028
12.237
12.3812
12.5353
12.6992
12.8724
13.0545
13.2444
13.4409
13.6424
13.847
14.0528
14.2574
14.4584
14.6532
14.8392
15.0136
15.174
15.3183
15.4444
15.551
15.6373
15.7028
15.748
15.7736
15.7812
15.7726
15.7501
15.7162
15.6735
15.6246
15.572
15.5179
15.4643
15.413
15.3655
15.323
15.2866
15.2574
15.2359
11.3209
11.2271
11.1529
11.0964
11.0554
11.0279
11.0122
11.0066
11.0099
11.0211
11.0394
11.0642
11.0951
11.132
11.1748
11.2237
11.2788
11.3404
11.409
11.4849
11.5687
11.6609
11.7619
11.8723
11.9925
12.1228
12.2636
12.4148
12.5766
12.7486
12.9303
13.1211
13.3196
13.5242
13.7331
13.9442
14.1553
14.3637
14.5668
14.7615
14.9452
15.1149
15.2683
15.403
15.5175
15.6105
15.6815
15.7306
15.7586
15.7669
15.7575
15.7327
15.6953
15.648
15.5937
15.5351
15.4746
15.4145
15.3566
15.3028
15.2543
15.2123
15.1781
15.1522
11.2652
11.1639
11.0842
11.0237
10.9797
10.9501
10.9328
10.9258
10.9279
10.9377
10.9544
10.9773
11.0061
11.0404
11.0802
11.1256
11.1769
11.2343
11.2984
11.3695
11.4483
11.5353
11.6312
11.7365
11.8518
11.9776
12.1142
12.262
12.4211
12.5914
12.7726
12.964
13.1646
13.3726
13.5863
13.8037
14.0223
14.2396
14.4527
14.6584
14.8536
15.0352
15.2004
15.3465
15.4716
15.574
15.6529
15.7082
15.7404
15.7509
15.7417
15.7153
15.6744
15.6223
15.562
15.4965
15.4286
15.3608
15.2953
15.2339
15.1784
15.1301
15.0901
15.0596
11.1857
11.0775
10.9926
10.9282
10.8814
10.8496
10.8305
10.8221
10.8225
10.8306
10.8454
10.866
10.892
10.9231
10.9594
11.0007
11.0475
11.1001
11.1588
11.2244
11.2973
11.3783
11.468
11.5672
11.6766
11.7967
11.9283
12.0717
12.2272
12.3949
12.5747
12.7662
12.9685
13.1798
13.3986
13.6228
13.85
14.0775
14.3023
14.5211
14.7304
14.9268
15.107
15.2679
15.407
15.5222
15.6123
15.6767
15.7158
15.7306
15.7233
15.6962
15.6525
15.5956
15.5288
15.4557
15.3794
15.3028
15.2284
15.1584
15.0947
15.039
14.9927
14.9569
11.0805
10.9658
10.876
10.8079
10.7584
10.7245
10.7035
10.6933
10.6919
10.6979
10.7102
10.728
10.7507
10.7781
10.81
10.8467
10.8882
10.9349
10.9874
11.0463
11.1123
11.186
11.2684
11.3601
11.4622
11.5753
11.7003
11.8378
11.9882
12.1519
12.3291
12.5195
12.7226
12.9367
13.1603
13.3915
13.6279
13.8668
14.1051
14.3393
14.5655
14.7799
14.9788
15.1584
15.3157
15.4479
15.5533
15.6307
15.6801
15.7024
15.6992
15.6733
15.6279
15.5667
15.4935
15.4122
15.3266
15.24
15.1554
15.0754
15.0024
14.9381
14.8844
14.8427
10.9476
10.8268
10.7324
10.6609
10.6087
10.5726
10.5497
10.5374
10.5339
10.5374
10.5468
10.5612
10.58
10.603
10.6299
10.6608
10.6961
10.736
10.7812
10.8321
10.8897
10.9547
11.028
11.1106
11.2035
11.3077
11.424
11.5535
11.6968
11.8546
12.0271
12.2147
12.4169
12.6326
12.8602
13.098
13.3439
13.5951
13.8484
14.1001
14.3462
14.5822
14.8039
15.0069
15.1874
15.3419
15.4677
15.5632
15.6276
15.6613
15.6659
15.6438
15.5986
15.5341
15.4548
15.3651
15.2694
15.1717
15.0756
14.9842
14.9003
14.8262
14.7639
14.7153
10.7853
10.6588
10.5601
10.4853
10.4306
10.3923
10.3672
10.3527
10.3466
10.3472
10.3531
10.3635
10.3778
10.3954
10.4164
10.4406
10.4685
10.5003
10.5366
10.5781
10.6256
10.68
10.7422
10.8134
10.8947
10.9874
11.0925
11.2113
11.3447
11.4937
11.659
11.8411
12.0401
12.2553
12.4853
12.7288
12.9838
13.2477
13.5173
13.7887
14.0575
14.319
14.5682
14.7999
15.0095
15.1924
15.3451
15.465
15.5504
15.601
15.6181
15.6037
15.5615
15.4957
15.4113
15.3133
15.207
15.0971
14.9881
14.8837
14.7873
14.7018
14.6296
14.5729
10.5918
10.46
10.3573
10.2794
10.2222
10.1816
10.1542
10.1371
10.1281
10.1252
10.1271
10.1329
10.1416
10.1531
10.167
10.1834
10.2025
10.2247
10.2505
10.2806
10.3159
10.3572
10.4058
10.4629
10.5297
10.6076
10.6982
10.8028
10.9227
11.0594
11.2138
11.387
11.5795
11.7913
12.0212
12.2685
12.5315
12.8078
13.0945
13.3874
13.6819
13.9728
14.2545
14.5209
14.7663
14.9851
15.1725
15.3245
15.4385
15.5132
15.549
15.5477
15.5127
15.4486
15.3608
15.2553
15.1381
15.0152
14.8918
14.7727
14.6621
14.5633
14.4795
14.4132
10.3654
10.2289
10.1225
10.0417
9.98187
9.93886
9.90892
9.88898
9.87655
9.86968
9.86688
9.86707
9.86947
9.87362
9.87928
9.8864
9.89517
9.90593
9.91919
9.93565
9.95617
9.98177
10.0137
10.0532
10.1018
10.1612
10.233
10.319
10.4211
10.5409
10.68
10.8398
11.0215
11.2257
11.452
11.7002
11.9691
12.2569
12.5606
12.8763
13.1991
13.5234
13.8428
14.1504
14.4393
14.7025
14.9336
15.1272
15.2792
15.3869
15.4497
15.4686
15.4466
15.3885
15.3003
15.1888
15.0612
14.9245
14.7855
14.65
14.523
14.4091
14.3117
14.2339
10.1049
9.96395
9.85411
9.7705
9.7082
9.66264
9.62988
9.60665
9.5903
9.57877
9.57046
9.56421
9.55918
9.5548
9.55078
9.54701
9.54359
9.54083
9.53919
9.53934
9.54215
9.54869
9.56021
9.5782
9.60433
9.64046
9.68862
9.75094
9.82966
9.92701
10.0452
10.1861
10.3516
10.5431
10.761
11.0059
11.2775
11.5746
11.8945
12.2335
12.5867
12.9481
13.3105
13.6661
14.0067
14.3237
14.6091
14.8555
15.0568
15.2086
15.3087
15.3571
15.356
15.3102
15.2259
15.1111
14.9741
14.8235
14.6677
14.5139
14.3685
14.237
14.1237
14.0325
9.80873
9.66391
9.55095
9.46468
9.39983
9.35154
9.31564
9.28866
9.2678
9.25087
9.23618
9.22246
9.20878
9.19449
9.17919
9.16268
9.14499
9.12632
9.10708
9.08788
9.06957
9.05323
9.04019
9.03204
9.03063
9.03809
9.05677
9.08924
9.13823
9.20656
9.29707
9.41247
9.55528
9.72765
9.93106
10.1671
10.4369
10.7398
11.0739
11.4358
11.8205
12.2219
12.6323
13.0428
13.4438
13.825
14.1763
14.4882
14.7521
14.9614
15.1117
15.2014
15.2315
15.2063
15.1323
15.0182
14.874
14.7101
14.5366
14.3627
14.1966
14.045
13.9133
13.8062
9.4759
9.32768
9.21191
9.12309
9.05563
9.0044
8.96499
8.93374
8.90771
8.88457
8.86253
8.8402
8.81654
8.79078
8.76242
8.73114
8.69682
8.65958
8.6197
8.57774
8.53447
8.49096
8.4486
8.40906
8.37441
8.34701
8.32958
8.32517
8.33706
8.36874
8.4238
8.5058
8.61814
8.76387
8.94553
9.16577
9.42761
9.73147
10.0762
10.4591
10.8755
11.319
11.7816
12.2534
12.7235
13.1797
13.6097
14.0011
14.3429
14.6253
14.8412
14.9867
15.0611
15.0674
15.0124
14.9052
14.7574
14.5816
14.39
14.1945
14.0052
13.8307
13.6778
13.5519
9.10545
8.95437
8.83611
8.74485
8.6747
8.62028
8.57695
8.54086
8.50893
8.47871
8.44825
8.41606
8.38097
8.34207
8.29869
8.25039
8.1969
8.13815
8.07432
8.00583
7.93337
7.85798
7.78103
7.70433
7.63009
7.56096
7.50005
7.45089
7.41741
7.40382
7.41459
7.45421
7.52714
7.6375
7.78892
7.98489
8.23109
8.52934
8.87966
9.28011
9.72664
10.213
10.7309
11.2697
11.8171
12.3591
12.8808
13.3671
13.8035
14.1768
14.4764
14.6952
14.8299
14.882
14.8572
14.7655
14.6196
14.4345
14.2254
14.007
13.7922
13.5918
13.4144
13.2666
8.69672
8.54334
8.4229
8.32931
8.25639
8.1985
8.15079
8.10927
8.07067
8.03241
7.99241
7.94903
7.90095
7.8471
7.78664
7.71893
7.64351
7.56014
7.46879
7.36973
7.26355
7.15118
7.03401
6.91389
6.79322
6.67492
6.5625
6.46004
6.37212
6.30381
6.2605
6.24778
6.27125
6.33631
6.44789
6.61024
6.83133
7.11569
7.46468
7.87747
8.35086
8.87911
9.45378
10.0638
10.6956
11.3335
11.96
12.5569
13.1058
13.5896
13.9934
14.3059
14.5204
14.6356
14.6558
14.5907
14.4546
14.2647
14.0397
13.7976
13.555
13.3256
13.1202
12.9469
8.24931
8.09422
7.97193
7.8761
7.8003
7.73865
7.68611
7.6385
7.59243
7.54514
7.49442
7.43847
7.37579
7.30511
7.22541
7.13579
7.03559
6.92431
6.80172
6.66789
6.52322
6.36855
6.20522
6.03514
5.86083
5.68551
5.51311
5.34826
5.19629
5.06313
4.95523
4.87936
4.84244
4.85126
4.91216
5.03072
5.21591
5.47644
5.81535
6.23328
6.7282
7.29515
7.92603
8.60955
9.33124
10.0737
10.8172
11.54
12.2199
12.8351
13.3655
13.7949
14.1118
14.311
14.3944
14.3708
14.2551
14.0671
13.8291
13.5635
13.2911
13.0294
12.7922
12.5895
7.76309
7.60689
7.4831
7.38514
7.30634
7.24063
7.18278
7.12845
7.07408
7.01677
6.95414
6.88422
6.80529
6.7159
6.61475
6.5007
6.3728
6.23031
6.0727
5.89981
5.71182
5.50943
5.2939
5.06715
4.83185
4.59149
4.3504
4.11382
3.88783
3.67933
3.49586
3.3455
3.23659
3.17748
3.17615
3.23985
3.37747
3.60261
3.92091
4.33477
4.84366
5.44379
6.12782
6.88461
7.69922
8.55293
9.42371
10.2868
11.1156
11.8833
12.5642
13.1358
13.5807
13.8885
14.0572
14.0934
14.0121
13.8354
13.5893
13.3014
12.9977
12.7005
12.4274
12.1909
7.23824
7.08156
6.95661
6.85662
6.77473
6.70468
6.64105
6.57936
6.51589
6.44759
6.37189
6.28662
6.18986
6.07988
5.95513
5.81417
5.65573
5.47875
5.28242
5.06624
4.83019
4.57474
4.30105
4.01103
3.70746
3.39408
3.07566
2.75803
2.44807
2.15365
1.88352
1.64711
1.45431
1.31516
1.23942
1.23624
1.31462
1.49159
1.77716
2.17581
2.68888
3.31415
4.04545
4.87234
5.77984
6.74843
7.75424
8.76956
9.76373
10.7045
11.56
12.3005
12.9015
13.3458
13.6257
13.7441
13.7151
13.5621
13.3153
13.0078
12.6721
12.3363
12.0229
11.7478
6.67526
6.51871
6.39296
6.29106
6.206
6.13133
6.06151
5.99187
5.91856
5.83835
5.74849
5.64659
5.53048
5.39817
5.24779
5.07758
4.88592
4.67139
4.4328
4.16937
3.88074
3.56718
3.22968
2.87011
2.49134
2.09734
1.69331
1.28567
0.882116
0.491534
0.123897
-0.209925
-0.498425
-0.729795
-0.892323
-0.974857
-0.967253
-0.851787
-0.612392
-0.241779
0.263559
0.903375
1.67316
2.56365
3.56049
4.64393
5.78889
6.96519
8.13838
9.27094
10.3242
11.2608
12.0476
12.6588
13.0794
13.3066
13.3518
13.2387
13.0012
12.6788
12.3113
11.9342
11.5761
11.2571
6.07496
5.91917
5.79296
5.68929
5.60099
5.5215
5.4451
5.36701
5.28321
5.19028
5.0853
4.96563
4.82884
4.67265
4.49483
4.29328
4.06599
3.81114
3.52716
3.21288
2.86762
2.49138
2.08495
1.65014
1.18987
0.708326
0.211102
-0.294777
-0.800814
-1.29709
-1.77239
-2.21438
-2.60987
-2.94521
-3.20668
-3.38102
-3.45602
-3.41473
-3.23575
-2.9073
-2.42342
-1.78201
-0.985467
-0.0412795
1.03744
2.23148
3.5153
4.85701
6.21893
7.55862
8.83069
9.98938
10.992
11.8026
12.3964
12.7629
12.9083
12.8553
12.6407
12.3104
11.9126
11.492
11.0847
10.7162
5.43846
5.28402
5.15771
5.05241
4.96087
4.87639
4.79315
4.7062
4.61138
4.50511
4.38423
4.24586
4.08731
3.90595
3.69922
3.4646
3.19967
2.9022
2.57019
2.20205
1.79674
1.35395
0.874262
0.359358
-0.187807
-0.762845
-1.3598
-1.97107
-2.58737
-3.19776
-3.78977
-4.34959
-4.86237
-5.31255
-5.68436
-5.96233
-6.13192
-6.17658
-6.07207
-5.80074
-5.3534
-4.72534
-3.91643
-2.93181
-1.78267
-0.486846
0.930551
2.4369
3.99219
5.54974
7.05779
8.46207
9.70941
10.7523
11.5541
12.0937
12.3697
12.4013
12.2268
11.8983
11.4736
11.008
10.5471
10.1229
4.76718
4.61465
4.48857
4.38182
4.28707
4.19754
4.10728
4.01124
3.90507
3.78502
3.64772
3.49003
3.30895
3.10151
2.86478
2.59583
2.29181
1.95001
1.56799
1.14372
0.67577
0.163481
-0.392809
-0.99156
-1.62982
-2.30304
-3.00493
-3.72734
-4.4602
-5.19161
-5.90786
-6.59372
-7.23263
-7.80719
-8.29955
-8.69201
-8.9676
-9.1094
-9.09195
-8.89283
-8.49794
-7.89966
-7.09497
-6.0862
-4.88191
-3.49775
-1.95734
-0.292919
1.45433
3.23459
4.99052
6.65962
8.17794
9.48509
10.5304
11.2796
11.7203
11.8652
11.7522
11.4386
10.9924
10.4813
9.96233
9.47625
4.06281
3.91267
3.78716
3.67916
3.5813
3.48676
3.38948
3.28428
3.16666
3.03268
2.87874
2.70145
2.49747
2.26352
1.99624
1.69228
1.34833
0.961216
0.528017
0.0462503
-0.485945
-1.06959
-1.70461
-2.38966
-3.1218
-3.89638
-4.70677
-5.54434
-6.39831
-7.25581
-8.10198
-8.92017
-9.69225
-10.399
-11.0205
-11.5368
-11.9287
-12.1778
-12.2586
-12.1458
-11.8194
-11.2682
-10.4859
-9.47167
-8.23087
-6.77614
-5.12855
-3.31869
-1.38751
0.613439
2.62251
4.56983
6.38081
7.98144
9.30533
10.3019
10.9444
11.2356
11.2095
10.9275
10.4677
9.91183
9.33096
8.77635
3.32725
3.17994
3.05528
2.94625
2.84548
2.74609
2.64196
2.52777
2.39888
2.25114
2.08074
1.88398
1.65725
1.39686
1.09908
0.760104
0.376163
-0.0564112
-0.541023
-1.08063
-1.67753
-2.33313
-3.04766
-3.81996
-4.64718
-5.52454
-6.44519
-7.40002
-8.37759
-9.36415
-10.3438
-11.2985
-12.2086
-13.0531
-13.8104
-14.4582
-14.9751
-15.3405
-15.5295
-15.5148
-15.2724
-14.7854
-14.0445
-13.0452
-11.7892
-10.2854
-8.55124
-6.61449
-4.51424
-2.30208
-0.0422712
2.18938
4.30847
6.2272
7.86215
9.14389
10.0275
10.5013
10.592
10.3621
9.89952
9.30126
8.655
8.02504
2.5626
2.41843
2.2949
2.18508
2.08167
1.97776
1.86716
1.74443
1.60477
1.44383
1.25756
1.04199
0.793173
0.507065
0.179515
-0.193713
-0.616871
-1.09412
-1.62935
-2.226
-2.88683
-3.61362
-4.40695
-5.26585
-6.18758
-7.16731
-8.19798
-9.27007
-10.3716
-11.4879
-12.6022
-13.6951
-14.7458
-15.7315
-16.6287
-17.4134
-18.0619
-18.5513
-18.8569
-18.9501
-18.805
-18.3989
-17.7182
-16.755
-15.5068
-13.9781
-12.1822
-10.1424
-7.89453
-5.48823
-2.98831
-0.474579
1.96027
4.21536
6.18952
7.79232
8.9569
9.65268
9.89392
9.74069
9.28925
8.65292
7.93854
7.22629
1.77107
1.63025
1.50805
1.39773
1.29205
1.18412
1.06767
0.937148
0.787592
0.614451
0.413411
0.180234
-0.0893656
-0.399799
-0.755623
-1.16152
-1.62221
-2.14233
-2.72629
-3.37799
-4.10065
-4.89645
-5.76631
-6.70949
-7.72337
-8.80313
-9.94153
-11.1287
-12.3522
-13.5967
-14.8443
-16.0749
-17.2661
-18.3938
-19.4329
-20.3575
-21.1418
-21.761
-22.1897
-22.399
-22.3615
-22.0513
-21.449
-20.5426
-19.3258
-17.7983
-15.9682
-13.8536
-11.4853
-8.90908
-6.18802
-3.40341
-0.654019
1.94765
4.28299
6.23901
7.72366
8.68229
9.11125
9.06336
8.64048
7.97258
7.18823
6.38674
0.954924
0.817501
0.696788
0.586256
0.478796
0.367525
0.246128
0.108926
-0.0492255
-0.233092
-0.447244
-0.696213
-0.984619
-1.31724
-1.69904
-2.13513
-2.63071
-3.19089
-3.82054
-4.52407
-5.30513
-6.16631
-7.10886
-8.13231
-9.23419
-10.4097
-11.6515
-12.9495
-14.2908
-15.6594
-17.0368
-18.4019
-19.7311
-20.9991
-22.1793
-23.2443
-24.1666
-24.9191
-25.4756
-25.8071
-25.8851
-25.6829
-25.1751
-24.3454
-23.1831
-21.6832
-19.8481
-17.6899
-15.2329
-12.5173
-9.60184
-6.56651
-3.51334
-0.564051
2.14653
4.48238
6.32346
7.58619
8.24277
8.3327
7.95947
7.26899
6.41394
5.5163
0.116385
-0.0177585
-0.136914
-0.247339
-0.355981
-0.469686
-0.594825
-0.737218
-0.902199
-1.09477
-1.31978
-1.58207
-1.88658
-2.23847
-2.64311
-3.10602
-3.63287
-4.22922
-4.90042
-5.65134
-6.48605
-7.40757
-8.41747
-9.51556
-10.6995
-11.9647
-13.3037
-14.7061
-16.1588
-17.6454
-19.1467
-20.6407
-22.1029
-23.5071
-24.8253
-26.0288
-27.0885
-27.9757
-28.6626
-29.1203
-29.32
-29.2339
-28.8345
-28.099
-27.0127
-25.566
-23.7554
-21.5862
-19.0754
-16.2557
-13.1792
-9.92168
-6.58499
-3.29692
-0.206191
2.52878
4.75822
6.36512
7.29092
7.55463
7.25586
6.55456
5.6294
4.62886
-0.742439
-0.873623
-0.991247
-1.10123
-1.21033
-1.32533
-1.45268
-1.59834
-1.76787
-1.96656
-2.19952
-2.47194
-2.7891
-3.15654
-3.58001
-4.06547
-4.61899
-5.24661
-5.95412
-6.74682
-7.62922
-8.6047
-9.67521
-10.8408
-12.0994
-13.4465
-14.8745
-16.3732
-17.929
-19.5253
-21.1423
-22.7575
-24.3457
-25.8796
-27.3304
-28.668
-29.8623
-30.883
-31.701
-32.2869
-32.6118
-32.6475
-32.3663
-31.7401
-30.749
-29.3789
-27.6209
-25.4732
-22.9448
-20.0593
-16.8602
-13.4161
-9.82495
-6.21683
-2.75095
0.393812
3.03739
5.02575
6.2629
6.73928
6.54352
5.84614
4.85301
3.74306
-1.61966
-1.74844
-1.86467
-1.97388
-2.08258
-2.19749
-2.32513
-2.47166
-2.64292
-2.84448
-3.08181
-3.36044
-3.68602
-4.06446
-4.50191
-5.00474
-5.57943
-6.23245
-6.97001
-7.79782
-8.7208
-9.74271
-10.8658
-12.0905
-13.4148
-14.8344
-16.342
-17.927
-19.5759
-21.2718
-22.9947
-24.7214
-26.4263
-28.0815
-29.6572
-31.1226
-32.4463
-33.5971
-34.5445
-35.2586
-35.7103
-35.8714
-35.7139
-35.2085
-34.3285
-33.0558
-31.3759
-29.2804
-26.7698
-23.858
-20.5779
-16.9879
-13.1789
-9.27869
-5.45265
-1.89692
1.17911
3.58186
5.17182
5.90201
5.84142
5.16592
4.10868
2.88314
-2.51371
-2.64092
-2.75604
-2.86414
-2.97143
-3.08456
-3.21018
-3.35469
-3.52424
-3.72477
-3.96215
-4.24229
-4.57126
-4.95534
-5.40109
-5.91527
-6.50476
-7.17642
-7.93687
-8.7922
-9.7477
-10.8075
-11.9741
-13.2483
-14.6283
-16.11
-17.686
-19.3462
-21.0767
-22.8607
-24.6778
-26.5048
-28.3155
-30.0816
-31.7727
-33.3575
-34.8036
-36.079
-37.152
-37.9921
-38.5702
-38.8578
-38.8269
-38.4489
-37.6926
-36.5341
-34.9544
-32.9387
-30.4792
-27.5794
-24.2606
-20.5688
-16.584
-12.4273
-8.26548
-4.30728
-0.788931
2.05554
4.0378
5.06445
5.17463
4.54236
3.42688
2.07996
-3.42348
-3.55024
-3.6647
-3.77134
-3.87606
-3.98544
-4.10627
-4.24528
-4.40902
-4.6039
-4.83625
-5.11244
-5.43896
-5.82253
-6.27009
-6.78881
-7.38595
-8.06874
-8.84415
-9.71863
-10.6978
-11.7861
-12.9864
-14.2996
-15.7244
-17.2567
-18.8894
-20.6123
-22.4119
-24.2711
-26.1697
-28.0843
-29.9885
-31.8537
-33.6492
-35.3432
-36.9028
-38.2952
-39.4882
-40.4503
-41.1521
-41.5653
-41.6619
-41.4136
-40.7891
-39.7576
-38.2959
-36.3832
-34.0041
-31.1519
-27.8352
-24.0861
-19.9707
-15.5991
-11.1337
-6.79064
-2.82884
0.47814
2.88919
4.25566
4.57546
4.01138
2.84571
1.37211
-4.34842
-4.47623
-4.59066
-4.69551
-4.79631
-4.89958
-5.01234
-5.14174
-5.29487
-5.47871
-5.70014
-5.96608
-6.28353
-6.65965
-7.10182
-7.61758
-8.21456
-8.90033
-9.68218
-10.5669
-11.5603
-12.6673
-13.8908
-15.2321
-16.6901
-18.2609
-19.9376
-21.7103
-23.5656
-25.4865
-27.4529
-29.4414
-31.4257
-33.3771
-35.2647
-37.0563
-38.7189
-40.2193
-41.5246
-42.6026
-43.4238
-43.9595
-44.182
-44.0632
-43.5732
-42.6773
-41.3465
-39.5553
-37.2809
-34.5071
-31.2297
-27.466
-23.2656
-18.7236
-13.9928
-9.29033
-4.89225
-1.10894
1.76358
3.51332
4.08466
3.61755
2.41228
0.807232
-5.28868
-5.41946
-5.5347
-5.63744
-5.73275
-5.82715
-5.92798
-6.04296
-6.17987
-6.34642
-6.55021
-6.7988
-7.09977
-7.46079
-7.88969
-8.39439
-8.98287
-9.663
-10.4424
-11.328
-12.326
-13.4414
-14.6775
-16.0356
-17.515
-19.1119
-20.8199
-22.629
-24.5262
-26.4947
-28.5147
-30.5629
-32.6132
-34.6369
-36.6032
-38.48
-40.234
-41.8318
-43.2401
-44.4264
-45.3605
-46.0139
-46.3585
-46.3667
-46.0095
-45.253
-44.0611
-42.404
-40.2528
-37.5822
-34.376
-30.636
-26.3938
-21.7261
-16.7712
-11.7405
-6.92041
-2.65359
0.708928
2.88501
3.75279
3.41562
2.18421
0.443576
-6.24532
-6.38147
-6.49863
-6.5989
-6.68688
-6.76914
-6.85349
-6.94842
-7.06262
-7.20474
-7.38327
-7.60656
-7.88287
-8.22046
-8.62763
-9.1127
-9.68397
-10.3496
-11.1173
-11.9945
-12.9873
-14.1009
-15.3388
-16.7027
-18.1917
-19.8025
-21.5289
-23.3611
-25.2865
-27.2886
-29.3478
-31.4412
-33.543
-35.6248
-37.6561
-39.6046
-41.4374
-43.1209
-44.6217
-45.9069
-46.9459
-47.7099
-48.1709
-48.3013
-48.0727
-47.4532
-46.4033
-44.8874
-42.8713
-40.3219
-37.2118
-33.5273
-29.2813
-24.53
-19.3921
-14.0671
-8.84446
-4.09258
-0.215439
2.42962
3.64184
3.47221
2.23144
0.351843
-7.22047
-7.36499
-7.48544
-7.58284
-7.6613
-7.72752
-7.79002
-7.85832
-7.94231
-8.05185
-8.19655
-8.38574
-8.62849
-8.93372
-9.31024
-9.76677
-10.3119
-10.954
-11.7011
-12.5604
-13.5385
-14.6406
-15.8703
-17.2293
-18.7172
-20.3306
-22.0635
-23.9065
-25.8471
-27.8693
-29.9537
-32.078
-34.2168
-36.3419
-38.4234
-40.4295
-42.3273
-44.0835
-45.6648
-47.0383
-48.1725
-49.0384
-49.6079
-49.8532
-49.7466
-49.257
-48.3469
-46.9733
-45.0976
-42.6798
-39.6822
-36.0767
-31.8575
-27.0584
-21.7752
-16.1895
-10.586
-5.35117
-0.937746
2.21885
3.82703
3.86788
2.63854
0.617466
-8.21757
-8.37417
-8.49963
-8.59367
-8.65992
-8.70541
-8.73967
-8.77362
-8.81874
-8.88645
-8.98775
-9.13317
-9.33274
-9.59614
-9.93274
-10.3516
-10.8617
-11.4716
-12.1893
-13.0222
-13.9769
-15.0586
-16.2709
-17.6158
-19.0926
-20.6983
-22.4268
-24.2692
-26.213
-28.2427
-30.3393
-32.4809
-34.6424
-36.7965
-38.9137
-40.9627
-42.9111
-44.7261
-46.3746
-47.8237
-49.0419
-49.9994
-50.6676
-51.0186
-51.0243
-50.6549
-49.8754
-48.6396
-46.9026
-44.6187
-41.7412
-38.2286
-34.0569
-29.2367
-23.8388
-18.0216
-12.0575
-6.34282
-1.37259
2.33908
4.39906
4.69963
3.50736
1.34342
-9.24174
-9.41503
-9.54753
-9.63754
-9.68822
-9.70726
-9.7056
-9.69612
-9.69236
-9.70772
-9.75497
-9.84607
-9.9922
-10.2039
-10.4911
-10.8634
-11.3298
-11.8991
-12.5793
-13.3778
-14.3011
-15.3544
-16.5413
-17.8635
-19.3206
-20.9094
-22.624
-24.4556
-26.3921
-28.418
-30.515
-32.6614
-34.8329
-37.0027
-39.1417
-41.2195
-43.2043
-45.0638
-46.7654
-48.2766
-49.5658
-50.6027
-51.3583
-51.8038
-51.9104
-51.6482
-50.9837
-49.8742
-48.2674
-46.1115
-43.352
-39.9352
-35.8198
-30.9938
-25.501
-19.4729
-13.1631
-6.96874
-1.41956
2.8935
5.4668
6.08404
4.96054
2.65378
-10.3002
-10.4959
-10.6379
-10.7228
-10.7536
-10.7391
-10.6922
-10.6285
-10.5642
-10.5153
-10.4967
-10.5221
-10.6039
-10.7537
-10.982
-11.2988
-11.7132
-12.234
-12.8692
-13.6262
-14.5111
-15.5291
-16.6835
-17.9759
-19.4058
-20.97
-22.6627
-24.475
-26.395
-28.4076
-30.4948
-32.6354
-34.8056
-36.9791
-39.1276
-41.2213
-43.2291
-45.1193
-46.8599
-48.4191
-49.7652
-50.8679
-51.6976
-52.2246
-52.419
-52.2499
-51.6833
-50.6791
-49.1834
-47.1406
-44.487
-41.1573
-37.0937
-32.2628
-26.6807
-20.4497
-13.7985
-7.11719
-0.961454
4.00491
7.16082
8.16126
7.14583
4.69819
-11.4028
-11.6281
-11.7824
-11.8606
-11.8659
-11.8087
-11.7052
-11.5744
-11.436
-11.3093
-11.2117
-11.159
-11.1652
-11.2427
-11.4026
-11.6552
-12.0098
-12.475
-13.0587
-13.7679
-14.6085
-15.5853
-16.7015
-17.9584
-19.3552
-20.8887
-22.5529
-24.339
-26.2353
-28.2269
-30.2961
-32.422
-34.5815
-36.7487
-38.8961
-40.9943
-43.0131
-44.9214
-46.6877
-48.2809
-49.6696
-50.8234
-51.7122
-52.3056
-52.5725
-52.4802
-51.9933
-51.0712
-49.6613
-47.7016
-45.1278
-41.8637
-37.8329
-32.9813
-27.2981
-20.8547
-13.851
-6.66238
0.138024
5.81919
9.63777
11.1001
10.2417
7.6577
-12.5632
-12.827
-12.9967
-13.0657
-13.0377
-12.9263
-12.7519
-12.5384
-12.31
-12.0899
-11.8989
-11.7549
-11.6735
-11.6682
-11.7505
-11.9309
-12.2186
-12.6219
-13.1485
-13.8048
-14.5965
-15.5278
-16.6015
-17.8186
-19.178
-20.6762
-22.3072
-24.0621
-25.9294
-27.8941
-29.939
-32.0435
-34.1848
-36.3378
-38.4753
-40.5687
-42.5883
-44.5035
-46.2837
-47.8977
-49.3151
-50.5051
-51.4372
-52.0803
-52.402
-52.3675
-51.9391
-51.074
-49.7203
-47.81
-45.2728
-42.031
-37.9979
-33.0911
-27.2742
-20.5871
-13.1984
-5.46285
2.03723
8.50982
13.0863
15.1047
14.4649
11.7523
-13.7999
-14.1135
-14.3021
-14.3574
-14.2855
-14.1045
-13.8413
-13.5259
-13.1888
-12.8577
-12.5572
-12.3078
-12.1266
-12.028
-12.024
-12.1248
-12.3394
-12.6758
-13.1408
-13.7406
-14.48
-15.3628
-16.3913
-17.5659
-18.8852
-20.3454
-21.9403
-23.6609
-25.4956
-27.4297
-29.446
-31.5243
-33.6423
-35.7751
-37.8963
-39.9775
-41.9897
-43.9027
-45.6862
-47.3096
-48.7424
-49.9541
-50.9136
-51.5888
-51.9457
-51.9475
-51.5535
-50.7174
-49.3847
-47.4852
-44.938
-41.6583
-37.5552
-32.5375
-26.5301
-19.5417
-11.7081
-3.35925
4.9203
12.2836
17.7344
20.4238
20.0801
17.2514
-15.1383
-15.5163
-15.7269
-15.7616
-15.6304
-15.3595
-14.9842
-14.5436
-14.0753
-13.613
-13.1853
-12.8155
-12.5222
-12.3203
-12.2218
-12.2366
-12.3732
-12.6387
-13.0393
-13.5802
-14.2656
-15.0985
-16.0805
-17.2117
-18.4899
-19.9111
-21.4687
-23.1536
-24.9541
-26.8556
-28.8411
-30.8906
-32.982
-35.091
-37.1913
-39.2552
-41.2538
-43.1574
-44.9357
-46.5585
-47.995
-49.2147
-50.1861
-50.8756
-51.2472
-51.2616
-50.8746
-50.0356
-48.685
-46.7501
-44.1389
-40.7558
-36.4993
-31.2701
-24.9861
-17.6078
-9.23549
-0.171956
9.00144
17.3875
23.8599
27.3626
27.4138
24.4875
-16.6143
-17.0751
-17.3102
-17.3123
-17.0999
-16.7109
-16.1936
-15.5985
-14.9724
-14.3558
-13.7815
-13.2755
-12.8578
-12.5431
-12.343
-12.2668
-12.3217
-12.5139
-12.8485
-13.3298
-13.961
-14.7442
-15.6802
-16.7684
-18.0062
-19.3889
-20.9097
-22.5594
-24.3259
-26.1948
-28.149
-30.1689
-32.2325
-34.3158
-36.3928
-38.4361
-40.417
-42.3059
-44.0726
-45.6864
-47.1165
-48.3317
-49.3
-49.9862
-50.3518
-50.3539
-49.9443
-49.0668
-47.6553
-45.6306
-42.8927
-39.3303
-34.8275
-29.2702
-22.5651
-14.668
-5.62287
4.30096
14.529
24.1169
31.8022
36.2999
36.8737
33.8773
-18.2789
-18.8465
-19.1057
-19.0555
-18.7292
-18.1833
-17.4844
-16.6979
-15.882
-15.0846
-14.3427
-13.6845
-13.1302
-12.6943
-12.3869
-12.2159
-12.1871
-12.3053
-12.5742
-12.9967
-13.575
-14.3102
-15.2022
-16.2495
-17.4489
-18.7953
-20.2815
-21.8977
-23.6321
-25.4699
-27.3941
-29.3852
-31.4215
-33.479
-35.532
-37.5532
-39.5139
-41.3845
-43.1346
-44.7329
-46.148
-47.3475
-48.2983
-48.9644
-49.3032
-49.2677
-48.804
-47.8495
-46.3296
-44.1552
-41.2179
-37.3881
-32.5319
-26.5154
-19.2259
-10.6059
-0.700092
10.2839
21.7881
32.8223
41.9783
47.7108
48.9779
45.9529
-20.2072
-20.9119
-21.1891
-21.0532
-20.5636
-19.8061
-18.8725
-17.8482
-16.8041
-15.7957
-14.8637
-14.0369
-13.335
-12.7706
-12.3519
-12.0843
-11.9717
-12.0169
-12.2219
-12.5882
-13.1165
-13.8068
-14.6582
-15.6681
-16.8327
-18.1463
-19.6012
-21.1874
-22.8926
-24.7022
-26.5991
-28.5637
-30.5744
-32.6073
-34.6369
-36.6358
-38.5753
-40.4254
-42.1552
-43.7328
-45.1255
-46.2995
-47.2196
-47.8484
-48.1402
-48.0416
-47.4916
-46.4193
-44.7397
-42.3514
-39.1325
-34.9355
-29.6032
-22.9774
-14.9195
-5.3482
5.70438
18.019
31.098
43.9141
54.8979
62.198
64.3971
61.4113
-22.5132
-23.3926
-23.6687
-23.3895
-22.6607
-21.6128
-20.3735
-19.0522
-17.7339
-16.4807
-15.3348
-14.3238
-13.4645
-12.7666
-12.2345
-11.8707
-11.6762
-11.6514
-11.7963
-12.1105
-12.5934
-13.2436
-14.059
-15.0364
-16.1709
-17.4564
-18.8845
-20.445
-22.1253
-23.9106
-25.7835
-27.7248
-29.7126
-31.7232
-33.7309
-35.7082
-37.6261
-39.4544
-41.1612
-42.7137
-44.0776
-45.2171
-46.0943
-46.669
-46.8935
-46.7063
-46.0376
-44.8056
-42.9127
-40.2419
-36.6531
-31.9794
-26.0349
-18.6312
-9.59702
1.18206
13.7016
27.7504
42.7998
57.8556
71.1747
80.5304
84.0204
81.1958
-25.3756
-26.473
-26.701
-26.1781
-25.0909
-23.6386
-21.9972
-20.3041
-18.6573
-17.1219
-15.7383
-14.529
-13.5054
-12.6716
-12.0272
-11.5703
-11.2983
-11.2087
-11.2993
-11.5675
-12.0111
-12.6273
-13.4129
-14.3636
-15.4739
-16.7368
-18.1436
-19.6836
-21.3438
-23.1092
-24.9625
-26.8841
-28.8522
-30.843
-32.8306
-34.7874
-36.684
-38.4894
-40.1709
-41.6943
-43.0235
-44.1201
-44.9431
-45.4479
-45.5842
-45.2832
-44.4633
-43.0294
-40.8684
-37.8446
-33.7956
-28.5298