# vtk DataFile Version 2.0
Lid-driven cavity
ASCII
DATASET STRUCTURED_POINTS
DIMENSIONS 64 64 1
ORIGIN 0.0078125 0.0078125 0
SPACING 0.015625 0.015625 1
POINT_DATA 4096
SCALARS pressure double 1
LOOKUP_TABLE default
27.0185
26.9983
26.9424
26.8626
26.771
26.6766
26.586
26.5034
26.4314
26.3712
26.3238
26.2893
26.2682
26.2606
26.267
26.2881
26.3248
26.378
26.4491
26.5393
26.6499
26.7823
26.9377
27.117
27.321
27.5501
27.804
28.0822
28.3834
28.7058
29.0468
29.403
29.7706
30.1448
30.5204
30.8914
31.2515
31.5941
31.9128
32.2012
32.4535
32.6646
32.8306
32.9484
33.0167
33.0355
33.0062
32.9319
32.8169
32.6668
32.488
32.2877
32.0735
31.853
31.634
31.424
31.2298
31.0582
30.9149
30.8052
30.7329
30.699
30.6997
30.721
27.0388
27.0182
26.9703
26.9039
26.8277
26.7485
26.6719
26.6015
26.5397
26.4881
26.4476
26.4189
26.4024
26.3985
26.4078
26.431
26.469
26.5227
26.5932
26.6818
26.7897
26.918
27.0678
27.24
27.4351
27.6536
27.8952
28.1592
28.4446
28.7496
29.0716
29.4077
29.754
30.1063
30.4596
30.8084
31.1468
31.4687
31.768
32.039
32.2762
32.4751
32.6318
32.7439
32.8101
32.8304
32.8064
32.741
32.6383
32.5034
32.3424
32.162
31.969
31.7705
31.5736
31.3849
31.2106
31.0563
30.9272
30.8274
30.7596
30.7247
30.7208
30.7423
27.0956
27.0656
27.0166
26.955
26.8871
26.8178
26.7512
26.6902
26.637
26.5928
26.5586
26.5351
26.5226
26.5218
26.5332
26.5575
26.5957
26.6486
26.7173
26.803
26.9068
27.0298
27.1731
27.3373
27.5232
27.7311
27.9608
28.2117
28.4829
28.7726
29.0786
29.398
29.7272
30.0624
30.3986
30.7307
31.0531
31.36
31.6455
31.9042
32.1308
32.321
32.4712
32.579
32.6433
32.6642
32.6433
32.5833
32.4883
32.3633
32.2142
32.0472
31.8688
31.6857
31.5043
31.3308
31.1707
31.0289
30.9098
30.817
30.753
30.7193
30.7162
30.7437
27.1783
27.132
27.0753
27.0125
26.9474
26.8835
26.8235
26.7696
26.7231
26.685
26.6561
26.6367
26.6275
26.6288
26.6413
26.6657
26.7029
26.7537
26.8192
26.9006
26.999
27.1154
27.251
27.4065
27.5826
27.7796
27.9977
28.2363
28.4946
28.771
29.0634
29.3692
29.6851
30.0072
30.3309
30.6513
30.9627
31.2596
31.5362
31.7872
32.0073
32.1922
32.3385
32.4438
32.5069
32.528
32.5086
32.4516
32.3609
32.2416
32.0994
31.9405
31.7712
31.5978
31.4264
31.2627
31.1118
30.978
30.8654
30.777
30.7155
30.6828
30.6806
30.7115
27.2751
27.2087
27.1401
27.0716
27.0054
26.9435
26.8874
26.8382
26.7966
26.7631
26.7381
26.7219
26.7147
26.7171
26.7295
26.7527
26.7874
26.8346
26.8954
26.971
27.0624
27.1709
27.2974
27.4431
27.6087
27.7946
28.001
28.2277
28.474
28.7386
29.0196
29.3145
29.6202
29.9329
30.2482
30.561
30.866
31.1575
31.4298
31.6772
31.8948
32.078
32.2232
32.328
32.3911
32.4128
32.3944
32.3389
32.2503
32.1336
31.9946
31.8395
31.6746
31.5061
31.3399
31.1813
31.0352
30.9055
30.7959
30.7093
30.6482
30.6148
30.6117
30.6417
27.3758
27.2873
27.2042
27.1273
27.0572
26.9947
26.9401
26.8936
26.8552
26.8247
26.8023
26.7878
26.7813
26.7833
26.7942
26.8145
26.8452
26.8871
26.9415
27.0094
27.0921
27.191
27.3071
27.4417
27.5956
27.7697
27.9642
28.1791
28.4141
28.668
28.9391
29.2253
29.5234
29.8298
30.1401
30.4493
30.7519
31.0423
31.3145
31.5627
31.7818
31.9669
32.1143
32.2213
32.2865
32.3099
32.2931
32.2387
32.151
32.0349
31.8965
31.7419
31.5777
31.4101
31.245
31.0874
30.9421
30.8129
30.703
30.6153
30.5521
30.5159
30.509
30.5345
27.4714
27.36
27.261
27.1739
27.0982
27.0332
26.9782
26.9327
26.8957
26.8667
26.8452
26.8308
26.8235
26.8235
26.831
26.8467
26.8714
26.9061
26.952
27.0103
27.0824
27.1697
27.2736
27.3954
27.5364
27.6975
27.8793
28.0821
28.3058
28.5496
28.812
29.091
29.3838
29.6865
29.9948
30.3038
30.6079
30.9011
31.1775
31.4309
31.6557
31.8469
32.0003
32.113
32.1832
32.2108
32.197
32.1446
32.0577
31.9415
31.8021
31.6459
31.4797
31.3097
31.142
30.9818
30.8337
30.7014
30.588
30.4962
30.4284
30.3867
30.3735
30.3915
27.5538
27.4194
27.3039
27.2056
27.123
27.0541
26.9974
26.9513
26.9142
26.885
26.8627
26.8468
26.8368
26.8328
26.835
26.844
26.8606
26.8858
26.9209
26.9672
27.0263
27.0998
27.1893
27.2964
27.4226
27.5692
27.7371
27.9269
28.1389
28.3725
28.6266
28.8995
29.1884
29.4894
29.7984
30.1102
30.4193
30.7194
31.0042
31.2674
31.5027
31.7048
31.869
31.9917
32.071
32.1062
32.0983
32.0499
31.9652
31.8493
31.7085
31.5495
31.3792
31.2044
31.0312
30.8652
30.7109
30.5722
30.4521
30.3533
30.2779
30.2282
30.2064
30.2146
27.6159
27.4586
27.3263
27.2165
27.1261
27.0525
26.9928
26.9447
26.906
26.875
26.8503
26.8309
26.8162
26.8061
26.8007
26.8006
26.8066
26.8197
26.8413
26.8729
26.9163
26.9733
27.0458
27.1356
27.2446
27.3745
27.5266
27.702
27.901
28.1237
28.3693
28.6363
28.9221
29.223
29.5346
29.852
30.1693
30.4803
30.7781
31.0559
31.3072
31.5257
31.7062
31.8447
31.9383
31.9859
31.9882
31.9475
31.8675
31.7537
31.6123
31.4503
31.2751
31.0937
30.9127
30.738
30.5745
30.4262
30.2962
30.1872
30.1016
30.0414
30.0087
30.0055
27.6504
27.4706
27.3218
27.2002
27.1018
27.0226
26.9591
26.9078
26.8661
26.8315
26.8024
26.7775
26.7559
26.7374
26.7219
26.71
26.7025
26.7006
26.7056
26.7194
26.7438
26.7811
26.8333
26.9027
26.9915
27.1019
27.2356
27.3939
27.578
27.7882
28.0241
28.2846
28.5674
28.8687
29.1845
29.5097
29.8384
30.1641
30.4796
30.7775
31.0507
31.2921
31.4959
31.6569
31.7717
31.8383
31.8568
31.8288
31.758
31.6494
31.5096
31.3458
31.1656
30.9767
30.7861
30.6003
30.4247
30.2637
30.1207
29.9986
29.8998
29.8266
29.781
29.765
27.6506
27.4488
27.2837
27.1505
27.0438
26.9586
26.8903
26.8347
26.7885
26.7488
26.7134
26.6807
26.6498
26.6202
26.5918
26.565
26.5409
26.5205
26.5055
26.4977
26.4994
26.513
26.541
26.5861
26.651
26.738
26.8496
26.9878
27.1538
27.3488
27.5727
27.825
28.1039
28.4055
28.7261
29.0609
29.4038
29.748
30.086
30.4099
30.7116
30.9836
31.2186
31.4107
31.5551
31.6491
31.6916
31.6836
31.6281
31.5299
31.3955
31.2323
31.0483
30.8518
30.6506
30.4519
30.2616
30.085
29.9258
29.7875
29.6728
29.584
29.5234
29.4932
27.6096
27.3864
27.2056
27.0609
26.9459
26.8543
26.7804
26.7195
26.6673
26.6205
26.5768
26.534
26.4912
26.4476
26.4031
26.3581
26.3137
26.271
26.2318
26.1983
26.1728
26.1581
26.1573
26.1732
26.2092
26.2681
26.353
26.4663
26.6101
26.7859
26.9945
27.2357
27.5083
27.8091
28.1344
28.4796
28.8389
29.2052
29.5706
29.9267
30.2646
30.5755
30.8513
31.0845
31.2691
31.4008
31.4775
31.4988
31.4671
31.3865
31.2632
31.1048
30.9197
30.7168
30.5048
30.2917
30.0847
29.8895
29.7112
29.5534
29.4197
29.3128
29.2352
29.1894
27.5206
27.2768
27.0808
26.9251
26.8017
26.7033
26.6231
26.5556
26.4959
26.4403
26.3859
26.3306
26.2729
26.2122
26.1481
26.0812
26.0123
25.943
25.875
25.8106
25.7528
25.7044
25.669
25.65
25.6511
25.676
25.7281
25.8108
25.9267
26.078
26.2663
26.4921
26.7549
27.0521
27.3807
27.7365
28.1137
28.5052
28.9029
29.2977
29.6797
30.0392
30.3665
30.6526
30.8898
31.0721
31.1954
31.2583
31.2614
31.2081
31.1041
30.9567
30.7749
30.5682
30.3462
30.1183
29.8926
29.6766
29.4759
29.2956
29.1397
29.0118
28.9149
28.8519
27.377
27.1135
26.903
26.7366
26.6049
26.4992
26.412
26.3366
26.2678
26.2014
26.134
26.0634
25.9878
25.9063
25.8189
25.7258
25.6279
25.5269
25.4247
25.3239
25.2276
25.1391
25.0624
25.0014
24.9605
24.9439
24.956
25.0006
25.0814
25.2013
25.3628
25.5673
25.815
26.1045
26.4336
26.7987
27.1944
27.6136
28.048
28.4879
28.9226
29.3409
29.7318
30.0843
30.3887
30.6367
30.8222
30.9414
30.9935
30.9802
30.9064
30.779
30.6071
30.4009
30.1713
29.929
29.6837
29.4445
29.2187
29.0125
28.8311
28.6792
28.5604
28.4782
27.1721
26.89
26.6658
26.4891
26.349
26.2357
26.1405
26.056
25.9764
25.897
25.8141
25.7251
25.6281
25.5223
25.4072
25.2832
25.1513
25.013
24.8706
24.7268
24.585
24.4489
24.323
24.2118
24.1203
24.0535
24.0164
24.014
24.0508
24.1307
24.2572
24.4326
24.6583
24.9341
25.2592
25.6308
26.0441
26.4925
26.9673
27.4584
27.9542
28.4424
28.9099
29.3439
29.732
30.0634
30.3292
30.5231
30.6415
30.6845
30.6551
30.5597
30.4071
30.2083
29.9752
29.7202
29.4552
29.1911
28.9374
28.7021
28.4919
28.3125
28.1689
28.0652
26.8996
26.6001
26.3631
26.1764
26.028
25.9065
25.8023
25.7074
25.6151
25.5203
25.4191
25.3085
25.1866
25.0522
24.9048
24.7448
24.5731
24.3913
24.2018
24.0076
23.8124
23.6202
23.4361
23.2651
23.113
22.9856
22.8888
22.8287
22.8107
22.8402
22.9216
23.0584
23.2533
23.5073
23.8219
24.1954
24.6239
25.1013
25.619
26.1667
26.732
27.301
27.8589
28.3905
28.8808
29.3157
29.6829
29.9728
30.1788
30.2979
30.3312
30.2834
30.1629
29.9811
29.751
29.4869
29.2033
28.9134
28.6294
28.3617
28.1191
27.9087
27.737
27.609
26.5534
26.2379
25.9889
25.7928
25.6359
25.5057
25.3915
25.2845
25.1775
25.0649
24.9424
24.8068
24.656
24.4885
24.3038
24.102
23.8843
23.6521
23.408
23.1552
22.8975
22.6397
22.3871
22.1455
21.9213
21.7214
21.5528
21.4224
21.3373
21.3039
21.3281
21.415
21.5683
21.7906
22.0857
22.4544
22.8936
23.3982
23.9599
24.5682
25.2102
25.8706
26.5328
27.179
27.7911
28.3515
28.844
29.2548
29.5731
29.7925
29.9108
29.9306
29.859
29.7073
29.4897
29.2226
28.923
28.6075
28.2915
27.9883
27.7094
27.4642
27.2606
27.105
26.1279
25.798
25.5381
25.3329
25.1674
25.0278
24.9024
24.7817
24.6577
24.5246
24.3777
24.2134
24.0293
23.8239
23.5964
23.3469
23.0763
22.7862
22.4792
22.1587
21.8289
21.4948
21.1622
20.8379
20.5289
20.2432
19.9889
19.7743
19.6077
19.4973
19.4505
19.4739
19.573
19.7518
20.0164
20.371
20.8142
21.3418
21.9465
22.6177
23.342
24.1033
24.883
25.6608
26.4152
27.1246
27.7684
28.3277
28.7871
29.1351
29.3654
29.4773
29.476
29.3719
29.18
28.9187
28.608
28.2685
27.9194
27.578
27.259
26.9748
26.7352
26.5482
25.6181
25.2755
25.0056
24.7919
24.6176
24.4679
24.33
24.1936
24.0505
23.8941
23.7193
23.5224
23.3006
23.0521
22.776
22.4722
22.1415
21.7854
21.4067
21.0087
20.596
20.1741
19.7493
19.329
18.9213
18.5352
18.18
17.8656
17.6019
17.3986
17.2651
17.2099
17.2402
17.3619
17.5826
17.9116
18.3495
18.8935
19.5375
20.2714
21.0818
21.9515
22.8605
23.7859
24.7028
25.5854
26.4079
27.1459
27.7781
28.2871
28.6611
28.8949
28.9903
28.9561
28.8074
28.5643
28.2504
27.8904
27.5084
27.1265
26.7638
26.436
26.1558
25.9329
25.0195
24.6661
24.3876
24.1656
23.9823
23.8216
23.6699
23.516
23.3512
23.1684
22.9623
22.7287
22.4645
22.1676
21.8368
21.4719
21.0734
20.6429
20.1829
19.6972
19.1904
18.6685
18.1383
17.608
17.0868
16.5847
16.1125
15.6815
15.3036
14.9903
14.753
14.6024
14.5479
14.5973
14.7588
15.0481
15.4688
16.0199
16.6967
17.4903
18.3873
19.3704
20.4181
21.5051
22.6034
23.6827
24.7118
25.6602
26.4996
27.2055
27.7593
28.1497
28.3737
28.4371
28.3542
28.1464
27.8404
27.466
27.0528
26.629
26.219
25.843
25.5171
25.2532
24.3286
23.9666
23.6805
23.4509
23.2583
23.0858
22.9187
22.7453
22.5563
22.3441
22.103
21.8284
21.5169
21.1661
20.7744
20.3413
19.8672
19.3535
18.8027
18.2186
17.6061
16.9715
16.3224
15.6676
15.0174
14.3831
13.7769
13.2119
12.7019
12.2604
11.9013
11.6373
11.4805
11.4409
11.5273
11.7606
12.1495
12.6955
13.3956
14.2424
15.2234
16.3211
17.5134
18.7731
20.069
21.3667
22.6294
23.8199
24.9021
25.8435
26.6171
27.2038
27.5938
27.7884
27.7994
27.6488
27.3662
26.9865
26.5461
26.0801
25.6196
25.1907
24.8135
24.503
23.5429
23.1745
22.8822
22.6453
22.4432
22.2579
22.0739
21.879
21.6632
21.4185
21.1387
20.8189
20.4553
20.045
19.5862
19.0779
18.5203
17.9145
17.2632
16.57
15.8401
15.0802
14.2984
13.5046
12.7099
11.927
11.1697
10.4531
9.79266
9.20458
8.70483
8.30893
8.03134
7.88487
7.88008
8.0391
8.3795
8.90539
9.61616
10.5062
11.5643
12.7739
14.1124
15.5515
17.0574
18.5917
20.1123
21.5752
22.9359
24.1527
25.1888
26.0153
26.614
26.9791
27.1183
27.0525
26.8137
26.4419
25.9808
25.4738
24.9605
24.4738
24.0395
23.6761
22.6609
22.2885
21.9914
21.7476
21.5358
21.3367
21.1344
20.9159
20.6707
20.3904
20.0684
19.6993
19.2787
18.8035
18.2714
17.681
17.0322
16.3259
15.5645
14.7518
13.8931
12.9956
12.0679
11.1207
10.1664
9.21901
8.29402
7.4083
6.5797
5.82666
5.16778
4.62126
4.20437
3.93274
3.81964
3.88601
4.15934
4.64782
5.35352
6.27317
7.39764
8.71153
10.1928
11.8126
13.5355
15.3198
17.1184
18.8804
20.5532
22.0848
23.4272
24.5403
25.3946
25.9751
26.283
26.3359
26.1667
25.8203
25.3484
24.8039
24.2363
23.6873
23.1897
22.7664
21.6823
21.3084
21.0078
20.7578
20.5359
20.3222
20.1002
19.8561
19.5791
19.2603
18.8926
18.4702
17.9882
17.443
16.8317
16.1527
15.4054
14.5905
13.7102
12.7682
11.7701
10.7234
9.63734
8.52355
7.39548
6.26862
5.16023
4.08914
3.07546
2.14009
1.30431
0.589183
0.0148965
-0.399907
-0.638897
-0.68293
-0.496148
-0.0641797
0.618178
1.5505
2.72618
4.13183
5.74675
7.54257
9.483
11.524
13.6145
15.6974
17.7115
19.5946
21.2866
22.7339
23.8941
24.7397
25.2624
25.4741
25.4066
25.1086
24.6396
24.0635
23.4415
22.8262
22.2589
21.7684
20.6081
20.2351
19.9326
19.6768
19.4447
19.2157
18.9726
18.7012
18.3901
18.0301
17.6136
17.1342
16.5867
15.9668
15.2712
14.4978
13.6455
12.7147
11.7075
10.6275
9.48042
8.27413
7.01866
5.72638
4.41197
3.09236
1.7866
0.515539
-0.698425
-1.83184
-2.8607
-3.76106
-4.50968
-5.08479
-5.46684
-5.63748
-5.55678
-5.20161
-4.56284
-3.63771
-2.4298
-0.949787
0.783864
2.74422
4.89539
7.19226
9.58075
11.9986
14.377
16.6434
18.7249
20.5534
22.0708
23.2347
24.0236
24.4404
24.5129
24.2918
23.8442
23.2457
22.5711
21.886
21.2426
20.6769
19.4404
19.071
18.768
18.5072
18.2648
18.0198
17.7544
17.4541
17.107
16.7035
16.2355
15.696
15.0794
14.3809
13.5965
12.7236
11.7608
10.7081
9.56724
8.34189
7.03792
5.6635
4.22934
2.74869
1.23744
-0.285996
-1.80081
-3.28408
-4.71113
-6.05595
-7.29182
-8.39188
-9.32987
-10.0809
-10.6222
-10.934
-10.9774
-10.7194
-10.1456
-9.2497
-8.03181
-6.49926
-4.66746
-2.56081
-0.213539
2.32962
5.01314
7.77106
10.5281
13.2021
15.7074
17.9604
19.8855
21.4223
22.5327
23.2063
23.4634
23.3539
22.9514
22.3434
21.6201
20.8629
20.1371
19.4878
18.1828
17.8195
17.5176
17.2525
16.9999
16.7384
16.4499
16.1194
15.7348
15.2859
14.7642
14.1623
13.4739
12.6935
11.8169
10.8408
9.76325
8.5839
7.30429
5.92804
4.46112
2.91208
1.29226
-0.384177
-2.10015
-3.83576
-5.56844
-7.27324
-8.92319
-10.4898
-11.9437
-13.2551
-14.3949
-15.335
-16.0496
-16.516
-16.6989
-16.5575
-16.0702
-15.2267
-14.0234
-12.4638
-10.5595
-8.33118
-5.81021
-3.03932
-0.0736403
3.01898
6.15854
9.25462
12.2097
14.9243
17.3039
19.2675
20.7565
21.743
22.2352
22.2783
21.95
21.3498
20.5845
19.7542
18.94
18.1983
16.84
16.4854
16.1861
15.9175
15.655
15.3768
15.0646
14.7032
14.28
13.7845
13.2076
12.5416
11.7795
10.9155
9.9444
8.86256
7.66754
6.35863
4.93709
3.40645
1.77283
0.0451628
-1.76461
-3.64142
-5.56699
-7.51996
-9.47604
-11.4083
-13.2875
-15.0828
-16.7623
-18.2934
-19.6441
-20.7835
-21.6828
-22.3158
-22.651
-22.6425
-22.2624
-21.4946
-20.3317
-18.7731
-16.8258
-14.5061
-11.841
-8.86969
-5.64491
-2.23417
1.28001
4.80106
8.22095
11.4251
14.2994
16.7403
18.6649
20.023
20.8054
21.0479
20.829
20.2585
19.4613
18.5584
17.6503
16.8074
15.418
15.0745
14.7794
14.5082
14.2362
13.9415
13.6055
13.2128
12.7505
12.2078
11.5753
10.8445
10.0081
9.05954
7.99321
6.8048
5.49142
4.05195
2.48742
0.80128
-1.00022
-2.90779
-4.90888
-6.9875
-9.12424
-11.2963
-13.4777
-15.6396
-17.7507
-19.7779
-21.6866
-23.442
-25.0093
-26.3548
-27.4468
-28.2563
-28.7535
-28.8913
-28.6365
-27.9668
-26.8702
-25.3418
-23.3837
-21.0071
-18.2335
-15.0969
-11.6457
-7.9447
-4.07626
-0.14045
3.74656
7.45658
10.8565
13.8183
16.2325
18.0214
19.1526
19.6468
19.578
19.0644
18.249
17.2762
16.2694
15.3161
13.9238
13.5936
13.3043
13.0315
12.7507
12.4399
12.0804
11.6568
11.1558
10.5662
9.87838
9.08334
8.17316
7.14073
5.97993
4.68585
3.25513
1.68627
-0.0199615
-1.86018
-3.82802
-5.91384
-8.10446
-10.3831
-12.7291
-15.1184
-17.5233
-19.9133
-22.2551
-24.5132
-26.6511
-28.6314
-30.417
-31.9718
-33.2614
-34.254
-34.9202
-35.2143
-35.0994
-34.5479
-33.5423
-32.073
-30.1374
-27.7409
-24.8987
-21.6383
-18.0019
-14.049
-9.85895
-5.53218
-1.1899
3.02866
6.97269
10.4901
13.4417
15.7186
17.2587
18.0606
18.1884
17.7641
16.9482
15.9106
14.8013
13.7286
12.3652
12.0504
11.7684
11.4952
11.2065
10.8805
10.4985
10.0448
9.50621
8.87114
8.12943
7.27181
6.28981
5.17576
3.92299
2.52605
0.981106
-0.713721
-2.55791
-4.54816
-6.67797
-8.93736
-11.3126
-13.786
-16.3359
-18.937
-21.5601
-24.1728
-26.74
-29.2244
-31.5874
-33.7895
-35.7914
-37.5549
-39.0433
-40.2226
-41.0618
-41.519
-41.5545
-41.138
-40.2454
-38.8626
-36.9822
-34.6035
-31.735
-28.3967
-24.6227
-20.4652
-15.9975
-11.3168
-6.54573
-1.83099
2.66156
6.75667
10.2848
13.1017
15.11
16.2787
16.654
16.3567
15.5623
14.4678
13.2535
12.0524
10.7511
10.4534
10.1801
9.90777
9.61246
9.27258
8.86953
8.38758
7.81331
7.13501
6.34212
5.42497
4.37459
3.18279
1.84237
0.347357
-1.30655
-3.12161
-5.09752
-7.23107
-9.51567
-11.941
-14.4928
-17.1526
-19.8978
-22.7017
-25.5339
-28.3604
-31.1444
-33.8468
-36.4272
-38.8443
-41.0569
-43.025
-44.71
-46.0759
-47.0898
-47.7135
-47.9066
-47.6366
-46.8758
-45.604
-43.8091
-41.4848
-38.6325
-35.264
-31.4044
-27.0963
-22.4042
-17.4186
-12.2593
-7.07616
-2.04636
2.63432
6.76626
10.1675
12.6999
14.2948
14.9723
14.8445
14.0982
12.9577
11.6373
10.2992
9.09056
8.81147
8.54821
8.27806
7.97767
7.62573
7.20378
6.6961
6.08918
5.37109
4.53097
3.55874
2.445
1.18105
-0.24085
-1.82715
-3.5826
-5.50983
-7.60879
-9.87634
-12.3058
-14.8866
-17.604
-20.4387
-23.3674
-26.3622
-29.3913
-32.4195
-35.4083
-38.3173
-41.1042
-43.7263
-46.1408
-48.3061
-50.1822
-51.7314
-52.9192
-53.7099
-54.0639
-53.9481
-53.3329
-52.1926
-50.5099
-48.2735
-45.4779
-42.1266
-38.2347
-33.834
-28.9775
-23.7457
-18.2513
-12.6425
-7.1027
-1.84447
2.90455
6.92388
10.03
12.1093
13.146
13.2346
12.5674
11.395
9.96902
8.48553
7.39304
7.13362
6.8816
6.61513
6.31151
5.94983
5.51183
4.98186
4.34632
3.59307
2.711
1.68965
0.519161
-0.809623
-2.30494
-3.97374
-5.82121
-7.85033
-10.0613
-12.4511
-15.0131
-17.7363
-20.6055
-23.6011
-26.6987
-29.8695
-33.0807
-36.2956
-39.4746
-42.5759
-45.5558
-48.3702
-50.9751
-53.3277
-55.3866
-57.1132
-58.4714
-59.4269
-59.9422
-59.9842
-59.523
-58.5298
-56.9816
-54.8621
-52.1599
-48.8702
-44.9982
-40.5635
-35.6064
-30.1939
-24.4276
-18.4488
-12.4418
-6.63039
-1.26648
3.39177
7.11269
9.73062
11.184
11.5392
10.9864
9.79975
8.27063
6.63402
5.66807
5.42896
5.1892
4.92796
4.62327
4.25471
3.80427
3.25636
2.59731
1.81481
0.897452
-0.165578
-1.38455
-2.76911
-4.32797
-6.06855
-7.9965
-10.1151
-12.425
-14.9231
-17.6028
-20.453
-23.4582
-26.5981
-29.8478
-33.1775
-36.5534
-39.938
-43.2904
-46.5676
-49.7248
-52.7168
-55.4986
-58.0262
-60.2576
-62.1531
-63.6759
-64.7919
-65.4661
-65.6663
-65.3628
-64.5267
-63.1297
-61.1507
-58.5731
-55.3846
-51.5807
-47.1689
-42.1749
-36.6507
-30.6826
-24.4002
-17.9823
-11.6576
-5.69722
-0.393746
3.97199
7.17659
9.10292
9.77753
9.37831
8.19859
6.57074
4.77383
3.92492
3.7063
3.47962
3.22518
2.92189
2.54985
2.09134
1.53082
0.854538
0.0499725
-0.894585
-1.99031
-3.24791
-4.67749
-6.28825
-8.0881
-10.0831
-12.277
-14.6706
-17.2611
-20.0419
-23.0018
-26.1251
-29.3909
-32.7739
-36.2436
-39.7654
-43.3008
-46.8081
-50.2432
-53.5605
-56.7138
-59.6574
-62.3464
-64.7382
-66.7924
-68.4719
-69.7423
-70.5708
-70.9268
-70.7813
-70.1061
-68.8716
-67.0507
-64.6224
-61.5681
-57.8745
-53.5373
-48.5675
-43.0001
-36.9035
-30.3907
-23.6291
-16.8454
-10.3225
-4.38277
0.645099
4.47619
6.9286
7.97655
7.77377
6.62559
4.90561
2.94188
2.1724
1.9739
1.76085
1.51483
1.21569
0.844145
0.38273
-0.184059
-0.870123
-1.68824
-2.65046
-3.76838
-5.05315
-6.51536
-8.16474
-10.0097
-12.0567
-14.3099
-16.7705
-19.4359
-22.2996
-25.3503
-28.5722
-31.9442
-35.4403
-39.0297
-42.6772
-46.3434
-49.986
-53.5601
-57.0193
-60.3168
-63.4061
-66.2418
-68.7808
-70.9824
-72.8091
-74.2263
-75.203
-75.71
-75.7197
-75.2051
-74.1376
-72.4862
-70.225
-67.3306
-63.7819
-59.5639
-54.6734
-49.1276
-42.9749
-36.3082
-29.2773
-22.0998
-15.0625
-8.5107
-2.817
1.67047
4.69727
6.1725
6.21193
5.12345
3.32019
1.18383
0.41854
0.23922
0.0400533
-0.195965
-0.4879
-0.854421
-1.31274
-1.87841
-2.56557
-3.38735
-4.35625
-5.48434
-6.78329
-8.26423
-9.93741
-11.8117
-13.8943
-16.1896
-18.6991
-21.4206
-24.3477
-27.4693
-30.7693
-34.2267
-37.815
-41.5031
-45.2552
-49.0316
-52.7894
-56.4829
-60.0654
-63.4894
-66.7079
-69.6751
-72.3475
-74.6842
-76.6475
-78.2029
-79.3201
-79.9717
-80.1315
-79.7741
-78.8724
-77.3958
-75.3127
-72.5959
-69.2181
-65.1552
-60.3906
-54.9242
-48.7835
-42.038
-34.8156
-27.3172
-19.8251
-12.6989
-6.34934
-1.18652
2.45671
4.41199
4.74186
3.74467
1.86937
-0.444715
-1.32964
-1.49135
-1.67673
-1.90118
-2.1826
-2.53898
-2.98734
-3.5434
-4.2217
-5.03587
-5.99899
-7.12374
-8.42241
-9.90674
-11.5876
-13.4744
-15.5748
-17.8938
-20.4332
-23.1912
-26.1615
-29.3333
-32.6905
-36.2118
-39.8709
-43.6363
-47.4719
-51.3377
-55.1903
-58.9838
-62.6708
-66.2035
-69.5345
-72.6179
-75.4096
-77.8688
-79.9575
-81.6415
-82.8907
-83.6792
-83.9823
-83.7761
-83.0355
-81.7322
-79.8317
-77.3026
-74.1131
-70.2313
-65.6293
-60.2907
-54.222
-47.468
-40.1303
-32.3871
-24.5077
-16.8562
-9.87328
-4.02727
0.267286
2.75326
3.42373
2.55291
0.619314
-1.8769
-3.06654
-3.21284
-3.3848
-3.59619
-3.8635
-4.20401
-4.63466
-5.17148
-5.82961
-6.62346
-7.56688
-8.67334
-9.95588
-11.427
-13.0981
-14.9795
-17.0791
-19.4027
-21.9524
-24.7268
-27.7199
-30.921
-34.3141
-37.8782
-41.5867
-45.4081
-49.3063
-53.2408
-57.1682
-61.0423
-64.8154
-68.4394
-71.8666
-75.0508
-77.9479
-80.5167
-82.7195
-84.5218
-85.8938
-86.8106
-87.2488
-87.1861
-86.5993
-85.4625
-83.7432
-81.4046
-78.412
-74.7275
-70.3139
-65.1401
-59.1928
-52.4916
-45.1094
-37.1963
-29.0004
-20.8806
-13.2973
-6.77062
-1.79728
1.26737
2.33026
1.62442
-0.351049
-3.03311
-4.78815
-4.92211
-5.08154
-5.2782
-5.52734
-5.84559
-6.24978
-6.75648
-7.38178
-8.1411
-9.04941
-10.1212
-11.3704
-12.8105
-14.4537
-16.3108
-18.3907
-20.6993
-23.2395
-26.0101
-29.0055
-32.2152
-35.6236
-39.2095
-42.9467
-46.8034
-50.7437
-54.727
-58.7098
-62.6458
-66.4871
-70.1855
-73.6931
-76.9633
-79.9521
-82.618
-84.9231
-86.8333
-88.3184
-89.3542
-89.9185
-89.9901
-89.5477
-88.5679
-87.0217
-84.8703
-82.0752
-78.5947
-74.384
-69.3998
-63.6107
-57.0117
-49.6461
-41.632
-33.1892
-24.6615
-16.518
-9.32186
-3.64915
0.0393981
1.54818
1.04975
-0.948187
-3.81916
-6.49215
-6.61772
-6.76618
-6.94688
-7.17341
-7.46187
-7.82951
-8.29383
-8.87209
-9.58115
-10.4374
-11.4568
-12.6544
-14.0447
-15.6409
-17.4546
-19.4952
-21.7694
-24.2803
-27.0274
-30.0052
-33.2037
-36.6072
-40.1951
-43.941
-47.8136
-51.7767
-55.79
-59.8099
-63.7901
-67.6827
-71.4393
-75.012
-78.3541
-81.4212
-84.1718
-86.5679
-88.5753
-90.1634
-91.3084
-91.9889
-92.1846
-91.8759
-91.0414
-89.6552
-87.6819
-85.0778
-81.7988
-77.7947
-73.0123
-67.4041
-60.9427
-53.6418
-45.585
-36.9587
-28.0821
-19.4219
-11.5731
-5.18575
-0.830198
1.17999
0.935763
-1.06182
-4.12411
-8.17811
-8.30015
-8.43984
-8.60361
-8.80309
-9.05377
-9.37351
-9.7813
-10.2963
-10.9375
-11.7232
-12.671
-13.7975
-15.1185
-16.6483
-18.3993
-20.3816
-22.6025
-25.0658
-27.771
-30.7133
-33.8826
-37.2637
-40.8359
-44.5731
-48.4439
-52.4124
-56.4383
-60.478
-64.4854
-68.4126
-72.2114
-75.8337
-79.2329
-82.3646
-85.1872
-87.6625
-89.7562
-91.4375
-92.6818
-93.4678
-93.7763
-93.5889
-92.8862
-91.6448
-89.8335
-87.4079
-84.3201
-80.516
-75.935
-70.5164
-64.2123
-57.0082
-48.9528
-40.1948
-31.0216
-21.8862
-13.4034
-6.28904
-1.22411
1.34597
1.40803
-0.562277
-3.81753
-9.84768
-9.97214
-10.1059
-10.2519
-10.4194
-10.6235
-10.883
-11.2188
-11.6529
-12.207
-12.9019
-13.7577
-14.7928
-16.0246
-17.4686
-19.1381
-21.0441
-23.1943
-25.5928
-28.2397
-31.1302
-34.2544
-37.5972
-41.1379
-44.8506
-48.704
-52.6622
-56.685
-60.7289
-64.748
-68.6946
-72.5205
-76.1777
-79.6199
-82.8025
-85.684
-88.2262
-90.3944
-92.1581
-93.4912
-94.3725
-94.7825
-94.7033
-94.1166
-93.002
-91.3321
-89.0664
-86.1517
-82.5317
-78.14
-72.9051
-66.7613
-59.6683
-51.6406
-42.7871
-33.3573
-23.7806
-14.6794
-6.82466
-1.00632
2.18675
2.61385
0.70285
-2.74613
-11.5049
-11.639
-11.7703
-11.8976
-12.0277
-12.1752
-12.3603
-12.6069
-12.9406
-13.3865
-13.9692
-14.7113
-15.634
-16.7563
-18.0952
-19.665
-21.4773
-23.5404
-25.8587
-28.4324
-31.2568
-34.3219
-37.6128
-41.1087
-44.7836
-48.6062
-52.5408
-56.5472
-60.5821
-64.5996
-68.5523
-72.3921
-76.0712
-79.5433
-82.7641
-85.6919
-88.2886
-90.5195
-92.3538
-93.7646
-94.73
-95.2301
-95.2464
-94.7605
-93.7528
-92.1987
-90.065
-87.2989
-83.8384
-79.6127
-74.5415
-68.5442
-61.5572
-53.5626
-44.6295
-34.9654
-24.9678
-15.2546
-6.64063
-0.0197581
3.86645
4.72599
2.91288
-0.729421
-13.1567
-13.3093
-13.4424
-13.5498
-13.6358
-13.7148
-13.8093
-13.9471
-14.1585
-14.4734
-14.9205
-15.5263
-16.3149
-17.3073
-18.522
-19.9746
-21.6772
-23.6384
-25.8628
-28.3505
-31.0966
-34.0913
-37.3191
-40.7593
-44.3857
-48.1671
-52.0674
-56.0468
-60.062
-64.0671
-68.015
-71.8577
-75.5476
-79.0385
-82.2861
-85.2488
-87.8885
-90.1703
-92.0633
-93.54
-94.5775
-95.1552
-95.2535
-94.8535
-93.9346
-92.4727
-90.4368
-87.7808
-84.4437
-80.3502
-75.409
-69.5273
-62.6209
-54.6422
-45.6212
-35.722
-25.3036
-14.9692
-5.56544
1.91685
6.57682
7.94758
6.27941
2.4459
-14.8135
-14.9954
-15.1352
-15.2211
-15.2546
-15.2507
-15.2355
-15.2421
-15.3066
-15.4652
-15.7519
-16.1977
-16.8298
-17.672
-18.7444
-20.0634
-21.6417
-23.4881
-25.607
-27.9983
-30.6568
-33.5722
-36.7287
-40.1052
-43.6753
-47.4075
-51.2659
-55.2105
-59.198
-63.1827
-67.1175
-70.9545
-74.6464
-78.147
-81.4119
-84.3998
-87.0721
-89.394
-91.3342
-92.8648
-93.9618
-94.6035
-94.7694
-94.4387
-93.5897
-92.197
-90.229
-87.6432
-84.3773
-80.3604
-75.5018
-69.6875
-62.8153
-54.8102
-45.6658
-35.5021
-24.6364
-13.6485
-3.40526
5.01317
10.5426
12.5184
11.0533
7.03303
-16.49
-16.7146
-16.8667
-16.9284
-16.8986
-16.7942
-16.6464
-16.4954
-16.3855
-16.3601
-16.4598
-16.7207
-17.1741
-17.8463
-18.7591
-19.9298
-21.3713
-23.0923
-25.0968
-27.384
-29.9482
-32.7783
-35.8581
-39.1659
-42.6749
-46.3533
-50.165
-54.0697
-58.0244
-61.9833
-65.8993
-69.7248
-73.4123
-76.9157
-80.1907
-83.1957
-85.892
-88.2444
-90.2213
-91.7944
-92.9383
-93.6301
-93.8476
-93.5684
-92.7684
-91.4199
-89.4893
-86.9332
-83.6906
-79.684
-74.8261
-69.0104
-62.104
-54.0038
-44.6695
-34.1788
-22.8054
-11.0998
0.0599039
9.51285
16.0288
18.723
17.5337
13.3345
-18.207
-18.4908
-18.6616
-18.6945
-18.587
-18.3595
-18.0512
-17.712
-17.396
-17.1561
-17.0404
-17.0912
-17.3437
-17.8271
-18.5648
-19.5744
-20.8691
-22.4567
-24.3406
-26.5191
-28.9853
-31.7275
-34.7283
-37.9654
-41.4115
-45.0343
-48.7972
-52.6601
-56.5796
-60.51
-64.4043
-68.2148
-71.8941
-75.3959
-78.6759
-81.6922
-84.4058
-86.7809
-88.7854
-90.3902
-91.569
-92.2969
-92.5497
-92.3026
-91.5287
-90.1972
-88.2705
-85.7019
-82.4298
-78.3701
-73.4288
-67.4982
-60.4564
-52.1638
-42.5391
-31.6204
-19.6379
-7.10995
5.08143
15.7009
23.3499
26.9019
26.0799
21.7143
-19.9934
-20.3576
-20.554
-20.5506
-20.3451
-19.9652
-19.4616
-18.8974
-18.3393
-17.8513
-17.4903
-17.3051
-17.3353
-17.6127
-18.1617
-19.0003
-20.1408
-21.5903
-23.3507
-25.4189
-27.7868
-30.4412
-33.3639
-36.5315
-39.9158
-43.484
-47.1992
-51.0209
-54.9056
-58.8075
-62.6796
-66.4741
-70.1437
-73.6419
-76.9241
-79.948
-82.6741
-85.066
-87.0905
-88.7176
-89.9199
-90.6705
-90.9423
-90.7073
-89.9351
-88.5904
-86.6309
-84.0042
-80.6438
-76.4611
-71.3495
-65.1923
-57.8623
-49.2323
-39.1793
-27.6876
-14.9461
-1.43994
11.9485
23.9129
32.8823
37.4663
37.128
32.6147
-21.8895
-22.3609
-22.5901
-22.5387
-22.2077
-21.6366
-20.8931
-20.0588
-19.2169
-18.4436
-17.8059
-17.3589
-17.1466
-17.2029
-17.5525
-18.2131
-19.1956
-20.5054
-22.1427
-24.1024
-26.3748
-28.945
-31.7934
-34.8954
-38.2219
-41.7393
-45.4104
-49.1941
-53.0468
-56.9226
-60.7743
-64.5543
-68.2149
-71.7095
-74.9932
-78.023
-80.7588
-83.1632
-85.2018
-86.8432
-88.0583
-88.819
-89.0939
-88.8508
-88.0546
-86.6648
-84.6324
-81.8974
-78.385
-74.0002
-68.6217
-62.1179
-54.3479
-45.1747
-34.4896
-22.2307
-8.52351
6.17915
20.9951
34.5464
45.0809
50.9177
51.2126
46.5793
-23.9518
-24.5647
-24.8327
-24.7133
-24.2173
-23.4041
-22.3653
-21.206
-20.0303
-18.9307
-17.9833
-17.2495
-16.7765
-16.5992
-16.7422
-17.2213
-18.0455
-19.2178
-20.7359
-22.5923
-24.7751
-27.2676
-30.0483
-33.0913
-36.3665
-39.8395
-43.4722
-47.2234
-51.049
-54.9032
-58.7385
-62.5071
-66.1614
-69.6543
-72.9403
-75.9761
-78.7204
-81.1346
-83.1829
-84.8318
-86.0502
-86.8082
-87.0708
-86.7996
-85.9535
-84.4848
-82.3366
-79.4391
-75.7058
-71.03
-65.2764
-58.2919
-49.9154
-39.9906
-28.3959
-15.0883
-0.142919
16.0497
32.6068
48.0735
60.4987
67.8766
68.9998
64.2871
-26.2622
-27.0607
-27.3691
-27.148
-26.4294
-25.3045
-23.8991
-22.3491
-20.7826
-19.31
-18.0188
-16.9742
-16.2249
-15.8054
-15.7382
-16.0365
-16.7061
-17.7468
-19.153
-20.9145
-23.0166
-25.4404
-28.1625
-31.1556
-34.3882
-37.8249
-41.4271
-45.153
-48.9582
-52.7967
-56.6209
-60.383
-64.0347
-67.529
-70.8197
-73.8625
-76.6152
-79.0376
-81.0921
-82.7428
-83.9556
-84.6977
-84.9328
-84.614
-83.6919
-82.1099
-79.8009
-76.6826
-72.6541
-67.5913
-61.3424
-53.7272
-44.5578
-33.6504
-20.8585
-6.12556
10.4415
28.5072
47.2236
65.0514
79.8116
89.1192
91.3344
86.6038
-28.9431
-29.983
-30.3236
-29.9436
-28.916
-27.383
-25.5182
-23.4967
-21.4743
-19.5788
-17.9082
-16.5308
-15.4933
-14.827
-14.5506
-14.6731
-15.1959
-16.1144
-17.4194
-19.0972
-21.1302
-23.4968
-26.1716
-29.1255
-32.3257
-35.7359
-39.3166
-43.0255
-46.8181
-50.6479
-54.4674
-58.2282
-61.8821
-65.3815
-68.6795
-71.731
-74.4924
-76.9218
-78.9793
-80.6263
-81.8253
-82.5391
-82.7294
-82.3433
-81.3191
-79.5891
-77.0729
-73.6733
-69.2708
-63.7195
-56.8436
-48.4333
-38.2648
-26.1176
-11.8095
4.7454
23.45
43.9102
65.3342
86.1271
103.842
115.629
119.311
114.665
-32.1832
-33.5334
-33.8759
-33.2388
-31.7711
-29.6939
-27.2476
-24.6549
-22.1014
-19.7306
-17.6458
-15.9165
-14.5832
-13.6706
-13.191
-13.1473
-13.535
-14.3446
-15.5621
-17.1701
-19.1476
-21.4702
-24.1104
-27.0371
-30.2162
-33.6104
-37.1793
-40.8803
-44.6682
-48.4966
-52.3176
-56.0827
-59.7433
-63.2513
-66.5592
-69.6207
-72.3907
-74.8255
-76.8827
-78.5203
-79.6971
-80.3706
-80.4971
-80.023
-78.8705
-76.9573
-74.1872
-70.4441
-65.5862
-59.4407
-51.8001
-42.4196
-31.0301
-17.3636
-1.18807
17.6282
39.0208
62.5949
87.4515
112.024
133.576
148.659
154.384
150.011
-36.2839
-38.0231
-38.2902
-37.2255
-35.1143
-32.299
-29.1089
-25.822
-22.6517
-19.7507
-17.2209
-15.125
-13.4941
-12.3416
-11.6702
-11.4746
-11.7432
-12.4603
-13.6068
-15.161
-17.0983
-19.3914
-22.0105
-24.9227
-28.0924
-31.4812
-35.0481
-38.7498
-42.5409
-46.3746
-50.2029
-53.977
-57.648
-61.1672
-64.4864
-67.5581
-70.3358
-72.7736
-74.8261
-76.4481
-77.5935
-78.2144
-78.2598
-77.6729
-76.3655
-74.2339
-71.1631
-67.0146
-61.6199
-54.7738
-46.2304