# vtk DataFile Version 2.0
Lid-driven cavity
ASCII
DATASET STRUCTURED_POINTS
DIMENSIONS 32 32 1
ORIGIN 0.015625 0.015625 0
SPACING 0.03125 0.03125 1
POINT_DATA 1024
SCALARS pressure double 1
LOOKUP_TABLE default
33.8338
33.6832
33.4239
33.1407
32.8843
32.6795
32.5386
32.4698
32.4825
32.5885
32.801
33.1324
33.5916
34.1807
34.8921
35.7065
36.5914
37.503
38.384
39.1695
39.7952
40.2065
40.3687
40.2743
39.9469
39.4395
38.8265
38.1939
37.6281
37.2047
36.9794
36.9635
33.9844
33.8274
33.612
33.3865
33.1826
33.0183
32.9042
32.8492
32.8629
32.9568
33.1434
33.4344
33.8383
34.3579
34.9872
35.7098
36.4971
37.3107
38.0988
38.8023
39.3627
39.7308
39.8758
39.7928
39.5056
39.064
38.5365
37.9969
37.517
37.1561
36.9579
36.9475
34.2531
34.0297
33.8064
33.6015
33.4258
33.2851
33.1841
33.1289
33.1283
33.194
33.3395
33.5778
33.9198
34.3713
34.9302
35.5841
36.3084
37.0678
37.8122
38.4835
39.0228
39.3797
39.5223
39.4445
39.1697
38.748
38.2467
37.7379
37.2858
36.9423
36.7456
36.7253
34.5444
34.2271
33.9676
33.7579
33.5887
33.4524
33.3459
33.2713
33.2366
33.254
33.339
33.5084
33.7772
34.1566
34.6498
35.25
35.9369
36.6757
37.4166
38.0994
38.6604
39.0435
39.2102
39.1494
38.8817
38.4572
37.9454
37.4213
36.9507
36.583
36.3542
36.2925
34.7709
34.3503
34.0409
33.8096
33.6278
33.4752
33.3408
33.223
33.129
33.0726
33.0727
33.151
33.3287
33.6238
34.047
34.5981
35.2626
36.0057
36.7777
37.5146
38.1455
38.6036
38.8388
38.8289
38.5868
38.1598
37.6203
37.0499
36.5218
36.0912
35.796
35.6642
34.8497
34.3257
33.961
33.6966
33.4851
33.2943
33.1064
32.917
32.7332
32.5714
32.4548
32.4114
32.4703
32.6579
32.9941
33.4872
34.131
34.893
35.7254
36.5605
37.3181
37.9166
38.2875
38.3897
38.22
37.817
37.2532
36.6191
36.0023
35.4721
35.0763
34.8489
34.6993
34.077
33.6557
33.3491
33.0914
32.8392
32.5692
32.2753
31.9653
31.6587
31.3843
31.1773
31.0761
31.1176
31.3326
31.7409
32.3473
33.1286
34.0427
35.0201
35.9704
36.7935
37.3951
37.7041
37.6897
37.3703
36.8121
36.1144
35.3856
34.7205
34.1888
33.84
34.2392
33.527
33.0495
32.6922
32.3709
32.0323
31.6486
31.2122
30.7324
30.2324
29.747
29.3199
28.9999
28.8364
28.8743
29.1482
29.6768
30.4567
31.4593
32.6176
33.8326
34.9825
35.9392
36.5896
36.8582
36.7264
36.241
35.5052
34.6543
33.8225
33.118
32.6159
33.3924
32.6011
32.0684
31.651
31.2473
30.7947
30.2614
29.6388
28.9377
28.1849
27.4216
26.7003
26.0821
25.6313
25.4102
25.4722
25.8548
26.5832
27.6576
29.0209
30.5693
32.1595
33.6231
34.7911
35.5234
35.7405
35.4474
34.7385
33.7772
32.7532
31.8348
31.1413
32.0895
31.2322
30.6447
30.1564
29.6493
29.0523
28.3295
27.4712
26.4888
25.4127
24.2897
23.1822
22.1645
21.3188
20.7287
20.4718
20.6096
21.1994
22.2953
23.8605
25.7948
27.9368
30.0758
31.9747
33.407
34.2021
34.2898
33.7299
32.7063
31.4785
30.3036
29.3716
30.2743
29.3658
28.7235
28.152
27.5186
26.7441
25.7884
24.6397
23.3094
21.8296
20.2529
18.651
17.113
15.7414
14.6459
13.9341
13.7007
14.0248
15.0488
16.772
19.1106
21.8947
24.8741
27.7383
30.1546
31.8272
32.5669
32.3557
31.3732
29.9556
28.4837
27.2564
27.9088
26.9657
26.2683
25.6005
24.8168
23.8306
22.5972
21.1015
19.3529
17.3843
15.2524
13.0381
10.8459
8.80099
7.04288
5.71547
4.95337
4.86539
5.67372
7.45957
10.1691
13.6393
17.5927
21.6486
25.3573
28.2658
30.0145
30.4458
29.6854
28.1349
26.3345
24.7458
24.979
24.0189
23.2666
22.4899
21.533
20.3028
18.7492
16.8523
14.6181
12.0779
9.29108
6.34677
3.3651
0.495248
-2.09035
-4.20681
-5.67323
-6.33481
-5.92626
-4.22712
-1.24462
2.88541
7.88029
13.3062
18.5998
23.131
26.3177
27.7851
27.5254
25.9628
23.8221
21.7991
21.4974
20.5391
19.7333
18.8377
17.6892
16.1887
14.28
11.9374
9.16116
5.97937
2.45189
-1.32532
-5.21738
-9.05078
-12.6185
-15.6913
-18.0359
-19.4413
-19.6326
-18.2146
-15.1254
-10.4495
-4.44436
2.43547
9.5372
16.0541
21.1428
24.1275
24.7555
23.3873
20.9294
18.3957
17.505
16.5672
15.7122
14.6933
13.3429
11.5569
9.27279
6.45744
3.10387
-0.765259
-5.09152
-9.77414
-14.6651
-19.5676
-24.2404
-28.4088
-31.7841
-34.0902
-35.0627
-34.1472
-31.176
-26.1598
-19.2962
-11.0145
-2.00984
6.76514
14.1949
19.2279
21.2338
20.3696
17.6705
14.5511
13.0687
12.1699
11.274
10.136
8.58627
6.51661
3.85798
0.568718
-3.36691
-7.9335
-13.0761
-18.6912
-24.6199
-30.6446
-36.4922
-41.845
-46.3604
-49.6998
-51.5652
-51.3713
-48.7767
-43.7019
-36.2532
-26.7818
-15.9569
-4.81181
5.29589
12.8962
16.8444
16.9035
14.1107
10.3381
8.27678
7.43372
6.51078
5.26948
3.5406
1.21197
-1.79249
-5.52379
-10.0078
-15.2378
-21.1641
-27.6825
-34.6258
-41.7588
-48.7804
-55.3347
-61.0309
-65.4735
-68.3023
-68.9875
-67.0177
-62.2048
-54.5395
-44.2445
-31.8824
-18.4702
-5.52702
5.06824
11.5453
13.0463
10.3949
5.9161
3.23083
2.45758
1.52777
0.213817
-1.65238
-4.18757
-7.47616
-11.5797
-16.5355
-22.3467
-28.9703
-36.3031
-44.1718
-52.3268
-60.4442
-68.136
-74.9714
-80.5065
-84.3221
-85.9531
-84.7975
-80.5536
-73.0829
-62.4415
-49.0074
-33.6637
-17.9627
-4.11397
5.43181
8.96455
6.78695
1.57169
-1.96447
-2.65833
-3.56765
-4.90613
-6.84201
-9.4996
-12.9745
-17.341
-22.6491
-28.9131
-36.0972
-44.1006
-52.7456
-61.7714
-70.8355
-79.5254
-87.3797
-93.9187
-98.6789
-101.23
-100.979
-97.5428
-90.6491
-80.1732
-66.2485
-49.5068
-31.3708
-14.2312
-1.18973
4.99583
3.72635
-2.22195
-7.21285
-7.82423
-8.67798
-9.97252
-11.881
-14.5421
-18.0682
-22.5504
-28.0535
-34.6035
-42.1721
-50.661
-59.8892
-69.5869
-79.3974
-88.8897
-97.5814
-104.97
-110.569
-113.938
-114.576
-112.068
-106.034
-96.1735
-82.3499
-64.8486
-44.7915
-24.543
-7.72852
1.72858
1.90847
-4.71568
-12.4388
-12.9735
-13.7278
-14.8859
-16.6363
-19.1451
-22.5516
-26.9697
-32.4816
-39.1256
-46.88
-55.6477
-65.2446
-75.3933
-85.726
-95.7983
-105.114
-113.159
-119.435
-123.493
-124.913
-123.311
-118.264
-109.317
-96.0714
-78.4158
-57.0212
-33.9891
-13.2504
0.0965425
2.39918
-4.74907
-17.601
-18.0759
-18.6754
-19.5745
-20.9974
-23.1593
-26.2427
-30.3925
-35.7117
-42.2499
-49.9888
-58.8298
-68.5846
-78.9688
-89.6061
-100.043
-109.774
-118.278
-125.056
-129.659
-131.704
-130.87
-126.757
-118.803
-106.387
-88.9948
-66.7454
-41.2461
-16.4487
1.48025
6.7892
-0.553154
-22.7073
-23.1531
-23.5235
-24.0001
-24.8793
-26.4599
-28.9894
-32.6539
-37.5799
-43.8239
-51.3689
-60.1126
-69.8566
-80.3056
-91.0726
-101.695
-111.663
-120.453
-127.567
-132.562
-135.063
-134.784
-131.38
-124.264
-112.631
-95.6014
-72.6959
-44.8305
-15.658
7.79882
17.3849
10.5187
-27.8383
-28.2989
-28.3303
-28.1608
-28.2213
-28.9457
-30.6733
-33.6467
-38.0105
-43.8225
-51.0553
-59.5914
-69.2164
-79.6199
-90.402
-101.091
-111.172
-120.118
-127.435
-132.682
-135.487
-135.533
-132.455
-125.754
-114.546
-97.5757
-73.7793
-43.2193
-8.91352
21.5673
37.4158
32.3302
-33.1906
-33.7147
-33.2248
-32.0897
-30.9797
-30.5343
-31.2142
-33.3093
-36.9763
-42.2607
-49.112
-57.386
-66.8439
-77.1542
-87.9015
-98.6035
-108.738
-117.778
-125.221
-130.625
-133.608
-133.822
-130.791
-123.907
-112.249
-94.5575
-69.1215
-34.939
5.95871
45.8901
71.2186
70.3568
-39.1715
-39.778
-38.4322
-35.8526
-33.1156
-31.1441
-30.538
-31.6079
-34.4997
-39.224
-45.6882
-53.7081
-63.0111
-73.2395
-83.9593
-94.6762
-104.861
-113.977
-121.516
-127.013
-130.06
-130.28
-127.058
-119.572
-106.696
-86.8089
-58.0189
-18.5767
31.2544
84.3615
124.338
132.118
-46.6218
-47.1816
-44.3177
-39.5437
-34.5841
-30.7003
-28.6029
-28.567
-30.6799
-34.8832
-41.0194
-48.85
-58.0606
-68.2631
-79.0028
-89.7725
-100.033
-109.239
-116.863
-122.408
-125.415
-125.435
-121.797
-113.28
-98.4116
-75.0845
-40.6764
7.27754
69.3358
140.835
203.444
227.636
-57.3581
-57.2113
-51.4408
-43.2525
-35.2972
-29.1168
-25.3944
-24.2645
-25.6815
-29.4743
-35.3971
-43.1455
-52.3576
-62.6131
-73.4367
-84.3081
-94.6782
-103.988
-111.685
-117.231
-120.091
-119.701
-115.365
-105.354
-87.6792
-59.5831
-17.4806
42.415
122.357
218.973
315.876
369.936
-75.5304
-72.1899
-60.4756
-46.8669
-34.9648
-26.1845
-20.839
-18.7524
-19.655
-23.2172
-29.0859
-36.885
-46.205
-56.595
-67.5611
-78.5718
-89.0687
-98.4786
-106.221
-111.707
-114.311
-113.33
-107.885
-95.9091
-74.6187
-40.4657
11.3178
86.3009
189.504
321.579
468.279
575.524
-111.017
-95.4787
-71.2224
-49.2001
-32.522
-21.1445
-14.443
-11.7608
-12.4921
-16.1124
-22.1553
-30.1776
-39.7306
-50.341
-61.5034
-72.6802
-83.3073
-92.7992
-100.548
-105.908
-108.156
-106.417
-99.5449
-85.1159
-59.5939
-18.5711
44.0404
136.085
266.872
445.202
667.534
864.051
-186.573
-126.465
-77.9399
-45.0249
-23.9837
-11.2436
-4.4639
-2.19866
-3.50959
-7.73148
-14.3373
-22.8586
-32.8379
-43.8024
-55.2513
-66.6532
-77.4469
-87.0414
-94.8061
-100.044
-101.935
-99.4297
-91.0785
-74.0516
-44.4652
2.82843
75.1041
182.656
340.705
573.729
917.713
1331.94
-373.643
-136.039
-52.4657
-17.7515
-0.72243
7.95469
11.5101
11.3231
8.14143
2.47266
-5.26772
-14.6887
-25.3884
-36.9354
-48.8611
-60.6585
-71.7828
-81.6499
-89.6223
-94.9761
-96.8311
-94.021
-84.8371
-66.42
-34.8295
15.3983
92.0938
207.048
380.348
654.678
1145.27
2153.34
VECTORS velocity double
8.31392e-05 -8.31392e-05 0
0.000169611 -3.33263e-06 0
3.54132e-05 0.00013753 0
-0.000368665 0.000266548 0
-0.001001 0.000365789 0
-0.00180516 0.000438368 0
-0.00273535 0.000491826 0
-0.00375859 0.000531409 0
-0.00484842 0.000558422 0
-0.00597765 0.000570807 0
-0.00711289 0.00056444 0
-0.00821178 0.000534447 0
-0.00922256 0.000476329 0
-0.0100858 0.000386913 0
-0.0107379 0.000265186 0
-0.0111161 0.000113015 0
-0.0111647 -6.43745e-05 0
-0.010842 -0.000258405 0
-0.0101286 -0.000455001 0
-0.00903723 -0.000636326 0
-0.00761826 -0.000782637 0
-0.00596071 -0.000874913 0
-0.00418769 -0.000898108 0
-0.00244506 -0.000844532 0
-0.000883956 -0.000716569 0
0.000360478 -0.000527865 0
0.00119094 -0.000302601 0
0.00156484 -7.12983e-05 0
0.00150526 0.000130882 0
0.00110935 0.000265027 0
0.000560216 0.000284106 0
0.000138055 0.000138055 0
-2.06667e-07 -0.000166072 0
-0.000249002 0.000241924 0
-0.00105656 0.000834028 0
-0.00245883 0.0013764 0
-0.00437477 0.0018042 0
-0.00669413 0.00212348 0
-0.00931469 0.00235746 0
-0.0121482 0.00252255 0
-0.0151127 0.00262153 0
-0.0181211 0.00264537 0
-0.021074 0.00257799 0
-0.0238556 0.0024014 0
-0.0263357 0.00210025 0
-0.0283749 0.00166545 0
-0.0298335 0.00109731 0
-0.0305823 0.00040794 0
-0.0305157 -0.000377228 0
-0.0295657 -0.00121834 0
-0.0277164 -0.00205784 0
-0.0250159 -0.00282526 0
-0.0215847 -0.00344387 0
-0.0176159 -0.00384007 0
-0.013367 -0.00395486 0
-0.00914114 -0.00375626 0
-0.00525705 -0.00325003 0
-0.0020101 -0.00248579 0
0.000370951 -0.0015562 0
0.00176671 -0.000587359 0
0.00219846 0.000274779 0
0.00184416 0.000871338 0
0.00104202 0.00102907 0
0.000290581 0.00056669 0
-0.000181291 1.54264e-05 0
-0.00100611 0.00113404 0
-0.00274509 0.00248844 0
-0.00532338 0.00370257 0
-0.00859705 0.00466764 0
-0.0124112 0.00539358 0
-0.0166229 0.00591961 0
-0.0211007 0.00627168 0
-0.0257142 0.00645032 0
-0.0303236 0.00643443 0
-0.0347729 0.00619115 0
-0.0388895 0.00568643 0
-0.0424883 0.00489417 0
-0.0453811 0.00380351 0
-0.0473878 0.00242445 0
-0.0483501 0.000791972 0
-0.0481464 -0.0010315 0
-0.0467066 -0.00295392 0
-0.0440251 -0.00485314 0
-0.0401724 -0.00658304 0
-0.0353039 -0.0079858 0
-0.0296618 -0.00890907 0
-0.023569 -0.00922761 0
-0.0174108 -0.00886748 0
-0.0116045 -0.00782922 0
-0.00655374 -0.00620433 0
-0.00259342 -0.00417903 0
6.83143e-05 -0.00202202 0
0.00140206 -5.60517e-05 0
0.00158902 0.00136951 0
0.00102281 0.00189924 0
0.000306747 0.00116402 0
-0.000400495 0.000597213 0
-0.00191369 0.00289028 0
-0.00472866 0.00528614 0
-0.00859748 0.00735197 0
-0.0132837 0.00897813 0
-0.0185816 0.0101952 0
-0.0243128 0.0110609 0
-0.0303118 0.0116071 0
-0.0364107 0.0118273 0
-0.042429 0.0116851 0
-0.0481695 0.0111302 0
-0.0534204 0.0101149 0
-0.0579635 0.00860761 0
-0.0615839 0.00660326 0
-0.0640831 0.00413059 0
-0.0652921 0.00125713 0
-0.0650843 -0.00190808 0
-0.0633873 -0.00521421 0
-0.0601925 -0.00846919 0
-0.0555677 -0.0114444 0
-0.0496693 -0.0138914 0
-0.0427489 -0.015566 0
-0.0351529 -0.0162595 0
-0.0273107 -0.0158358 0
-0.019708 -0.0142699 0
-0.012841 -0.0116814 0
-0.00715327 -0.00835003 0
-0.00296135 -0.00470468 0
-0.00038483 -0.00128365 0
0.000703692 0.00132162 0
0.000697722 0.0025193 0
0.00024349 0.00171425 0
-0.000634437 0.00163214 0
-0.00288252 0.00561663 0
-0.00683525 0.00932749 0
-0.01204 0.0123841 0
-0.0181494 0.0147416 0
-0.0249014 0.0164816 0
-0.0320848 0.0176891 0
-0.0395085 0.0184014 0
-0.0469785 0.018602 0
-0.0542875 0.0182379 0
-0.0612129 0.0172432 0
-0.0675208 0.0155608 0
-0.0729756 0.0131595 0
-0.0773499 0.0100461 0
-0.0804361 0.00627332 0
-0.0820577 0.00194496 0
-0.082079 -0.00278239 0
-0.0804121 -0.00770382 0
-0.0770247 -0.0125619 0
-0.0719554 -0.0170457 0
-0.0653323 -0.0208115 0
-0.057387 -0.0235116 0
-0.0484622 -0.0248347 0
-0.0390097 -0.0245553 0
-0.0295711 -0.0225917 0
-0.0207364 -0.0190614 0
-0.0130751 -0.0143191 0
-0.00704547 -0.00895713 0
-0.00289798 -0.0037552 0
-0.000600654 0.000407323 0
0.00019576 0.00264316 0
0.000141323 0.00209907 0
-0.000871129 0.00313771 0
-0.00385965 0.00934767 0
-0.00894976 0.0146393 0
-0.0154743 0.0188016 0
-0.0229703 0.0219296 0
-0.031119 0.0241942 0
-0.0396811 0.0257221 0
-0.0484477 0.0265586 0
-0.0572102 0.0266773 0
-0.0657478 0.0260093 0
-0.0738262 0.0244755 0
-0.0812027 0.0220129 0
-0.0876341 0.0185937 0
-0.0928864 0.0142385 0
-0.0967431 0.00902392 0
-0.0990141 0.00308692 0
-0.0995429 -0.00337428 0
-0.0982105 -0.0101111 0
-0.0949416 -0.0168109 0
-0.0897239 -0.0230838 0
-0.0826337 -0.0284866 0
-0.0738591 -0.0325565 0
-0.0637169 -0.0348569 0
-0.0526624 -0.0350401 0
-0.0412829 -0.0329249 0
-0.0302648 -0.028581 0
-0.0203246 -0.0224009 0
-0.0121029 -0.0151267 0
-0.00603373 -0.00780221 0
-0.00222988 -0.00164684 0
-0.000423348 0.00209438 0
1.92736e-05 0.00225966 0
-0.00110082 0.00510966 0
-0.00480245 0.0140659 0
-0.010979 0.0211877 0
-0.0187547 0.0265535 0
-0.0275569 0.0304758 0
-0.0370154 0.0332552 0
-0.0468692 0.0350771 0
-0.0568999 0.0360009 0
-0.0668943 0.035992 0
-0.0766296 0.0349675 0
-0.0858703 0.0328365 0
-0.0943729 0.029531 0
-0.101892 0.025026 0
-0.108186 0.0193528 0
-0.113026 0.0126062 0
-0.116199 0.00494802 0
-0.117514 -0.00339169 0
-0.116809 -0.0121304 0
-0.113955 -0.0209144 0
-0.108873 -0.02928 0
-0.101571 -0.036683 0
-0.0921716 -0.0425341 0
-0.0809434 -0.0462497 0
-0.0683218 -0.0473233 0
-0.0549205 -0.0454225 0
-0.041515 -0.0405071 0
-0.028983 -0.0329469 0
-0.0181879 -0.0235976 0
-0.00981107 -0.0137772 0
-0.00417811 -0.00510862 0
-0.0011492 0.000720704 0
-0.000118712 0.00216022 0
-0.00131331 0.00752378 0
-0.00566969 0.0197098 0
-0.0128369 0.0288875 0
-0.0217494 0.0355419 0
-0.0317371 0.0402773 0
-0.0423877 0.0435629 0
-0.0534254 0.045661 0
-0.06463 0.0466522 0
-0.0757922 0.0464972 0
-0.0866951 0.0451003 0
-0.0971097 0.0423589 0
-0.106796 0.0381978 0
-0.115508 0.0325901 0
-0.122995 0.0255704 0
-0.129009 0.017242 0
-0.133305 0.00778098 0
-0.135653 -0.002562 0
-0.135842 -0.0134754 0
-0.133683 -0.0245821 0
-0.129025 -0.0353527 0
-0.121793 -0.0451441 0
-0.11203 -0.0532356 0
-0.0999281 -0.0588785 0
-0.0858718 -0.0613725 0
-0.0704682 -0.0601782 0
-0.0545573 -0.055068 0
-0.0391736 -0.0463017 0
-0.0254341 -0.0347775 0
-0.0143364 -0.0220719 0
-0.00650749 -0.0102758 0
-0.00200529 -0.00164318 0
-0.000276591 0.00176492 0
-0.00149768 0.0103348 0
-0.00641972 0.0261772 0
-0.0144406 0.0376082 0
-0.0243335 0.0456266 0
-0.0353481 0.0511949 0
-0.0470393 0.054987 0
-0.0591235 0.0573588 0
-0.0713846 0.0584201 0
-0.0836232 0.0581302 0
-0.0956342 0.0563814 0
-0.107199 0.0530575 0
-0.118085 0.0480714 0
-0.128044 0.041387 0
-0.136815 0.0330322 0
-0.144129 0.0231077 0
-0.14971 0.0117924 0
-0.153283 -0.000652542 0
-0.15459 -0.0138886 0
-0.153387 -0.0275312 0
-0.149449 -0.0409995 0
-0.142617 -0.053561 0
-0.132832 -0.0643668 0
-0.120186 -0.0724952 0
-0.104973 -0.0770251 0
-0.0877466 -0.0771554 0
-0.0693644 -0.072384 0
-0.0509878 -0.0627459 0
-0.0339946 -0.049066 0
-0.0197606 -0.0331151 0
-0.00932164 -0.0175005 0
-0.00303965 -0.00520274 0
-0.000466099 0.00102223 0
-0.00164288 0.0134753 0
-0.00701179 0.0333276 0
-0.015711 0.0471779 0
-0.0263893 0.056628 0
-0.0382348 0.0630536 0
-0.0507783 0.0673631 0
-0.0637331 0.0700218 0
-0.0768912 0.0711763 0
-0.0900668 0.0707882 0
-0.10307 0.0687376 0
-0.115696 0.0648918 0
-0.127718 0.0591457 0
-0.138893 0.0514454 0
-0.148949 0.0418021 0
-0.1576 0.0303027 0
-0.164541 0.0171189 0
-0.169461 0.00251409 0
-0.172057 -0.0131518 0
-0.172038 -0.029491 0
-0.16912 -0.0458952 0
-0.163055 -0.0615623 0
-0.153676 -0.0755299 0
-0.140944 -0.0867095 0
-0.125022 -0.0939461 0
-0.106351 -0.096132 0
-0.0857373 -0.0924027 0
-0.0644095 -0.0824317 0
-0.0439785 -0.0668044 0
-0.0262369 -0.0473523 0
-0.0127443 -0.0271948 0
-0.00431443 -0.0102203 0
-0.00070217 -0.000146038 0
-0.00173866 0.0168569 0
-0.00740877 0.0409851 0
-0.0165768 0.0573876 0
-0.0278105 0.0683303 0
-0.0402549 0.0756413 0
-0.0534235 0.0804875 0
-0.0670286 0.0834573 0
-0.0808718 0.084742 0
-0.0947822 0.0843085 0
-0.108587 0.082025 0
-0.122096 0.0777388 0
-0.135096 0.0713215 0
-0.147346 0.0626936 0
-0.158576 0.0518409 0
-0.168489 0.0388277 0
-0.176764 0.0238092 0
-0.183063 0.00704347 0
-0.187049 -0.0110995 0
-0.188397 -0.0302145 0
-0.186782 -0.0497039 0
-0.181876 -0.068724 0
-0.173396 -0.0862281 0
-0.161155 -0.100984 0
-0.145139 -0.11161 0
-0.125613 -0.116666 0
-0.10325 -0.114846 0
-0.0792502 -0.105316 0
-0.05539 -0.0882113 0
-0.0338754 -0.0652016 0
-0.016894 -0.0398194 0
-0.00589609 -0.0170235 0
-0.0010015 -0.0018497 0
-0.00177672 0.0203722 0
-0.00758056 0.0489437 0
-0.0169799 0.0679964 0
-0.0285094 0.0804847 0
-0.0412885 0.0887104 0
-0.0548172 0.0941156 0
-0.0688067 0.0974238 0
-0.0830668 0.0988788 0
-0.0974415 0.0984569 0
-0.111775 0.0960147 0
-0.125895 0.0913781 0
-0.139604 0.0843913 0
-0.152674 0.0749442 0
-0.164845 0.0629914 0
-0.175823 0.0485683 0
-0.185287 0.0318071 0
-0.192893 0.0129514 0
-0.198284 -0.00763155 0
-0.201119 -0.0294987 0
-0.20105 -0.0521032 0
-0.197685 -0.0745964 0
-0.19063 -0.0958905 0
-0.17954 -0.114653 0
-0.16419 -0.129307 0
-0.144603 -0.138081 0
-0.121222 -0.139174 0
-0.0951057 -0.131103 0
-0.0680788 -0.113311 0
-0.042703 -0.0869921 0
-0.0218608 -0.0558525 0
-0.00784727 -0.0260018 0
-0.00138104 -0.00423224 0
-0.00175178 0.0239007 0
-0.00750775 0.056975 0
-0.016882 0.0787387 0
-0.0284259 0.0928158 0
-0.0412498 0.101982 0
-0.0548418 0.107964 0
-0.0689091 0.111632 0
-0.0832669 0.113289 0
-0.0977716 0.112926 0
-0.112285 0.110392 0
-0.126655 0.105491 0
-0.140705 0.0980379 0
-0.154229 0.0878918 0
-0.166989 0.0749738 0
-0.178713 0.0592878 0
-0.189099 0.0409383 0
-0.197821 0.0201481 0
-0.204531 -0.00272781 0
-0.208888 -0.0272098 0
-0.210532 -0.0528176 0
-0.209037 -0.0787427 0
-0.203922 -0.103913 0
-0.194681 -0.126962 0
-0.180854 -0.146176 0
-0.162167 -0.159487 0
-0.138738 -0.164578 0
-0.111346 -0.159207 0
-0.0817126 -0.141868 0
-0.052633 -0.11289 0
-0.0276877 -0.0757418 0
-0.0102207 -0.0375929 0
-0.00185739 -0.00747067 0
-0.00166262 0.0273152 0
-0.00718493 0.0648388 0
-0.0162701 0.0893342 0
-0.0275363 0.10503 0
-0.0400998 0.115155 0
-0.053437 0.121721 0
-0.0672463 0.125752 0
-0.0813437 0.127624 0
-0.0955956 0.127348 0
-0.109881 0.124769 0
-0.124069 0.119672 0
-0.138012 0.111849 0
-0.151534 0.101127 0
-0.164433 0.0873972 0
-0.176478 0.0706335 0
-0.187411 0.0509122 0
-0.196946 0.0284309 0
-0.204772 0.00352557 0
-0.210563 -0.0233154 0
-0.213974 -0.0516575 0
-0.214586 -0.0807855 0
-0.211858 -0.109713 0
-0.205139 -0.137122 0
-0.193729 -0.161252 0
-0.177013 -0.179814 0
-0.154695 -0.19 0
-0.127138 -0.188734 0
-0.0957747 -0.173337 0
-0.063448 -0.142827 0
-0.0343557 -0.0998426 0
-0.0130538 -0.0522609 0
-0.00244586 -0.0117739 0
-0.00151275 0.0304905 0
-0.0066232 0.0722962 0
-0.0151619 0.0995008 0
-0.0258609 0.116829 0
-0.0378569 0.127916 0
-0.0506139 0.135054 0
-0.0638163 0.13943 0
-0.0772755 0.141502 0
-0.0908648 0.141311 0
-0.10448 0.138706 0
-0.118015 0.133459 0
-0.131353 0.125343 0
-0.144359 0.114162 0
-0.15688 0.0997825 0
-0.168742 0.082155 0
-0.17975 0.0613312 0
-0.189686 0.0374825 0
-0.198302 0.0109163 0
-0.205309 -0.0179075 0
-0.210412 -0.0485519 0
-0.213236 -0.0804545 0
-0.21322 -0.112789 0
-0.209604 -0.144382 0
-0.201461 -0.173545 0
-0.187817 -0.197881 0
-0.167893 -0.214175 0
-0.141502 -0.218507 0
-0.109587 -0.206843 0
-0.0747995 -0.176436 0
-0.0417758 -0.12835 0
-0.0163647 -0.0704669 0
-0.0031604 -0.0173802 0
-0.00131071 0.033314 0
-0.00585158 0.0791241 0
-0.0136086 0.108969 0
-0.0234688 0.12792 0
-0.0346036 0.139956 0
-0.0464642 0.147632 0
-0.058716 0.152307 0
-0.0711614 0.15453 0
-0.0836779 0.154389 0
-0.0961768 0.151742 0
-0.10858 0.146361 0
-0.120806 0.138005 0
-0.132767 0.126467 0
-0.144365 0.111597 0
-0.155495 0.0933321 0
-0.166041 0.0717081 0
-0.175874 0.0468746 0
-0.184838 0.0191043 0
-0.192729 -0.0111976 0
-0.199319 -0.0435687 0
-0.204303 -0.0776296 0
-0.207151 -0.112781 0
-0.207052 -0.148105 0
-0.202894 -0.182122 0
-0.193356 -0.212486 0
-0.177136 -0.235714 0
-0.153385 -0.24711 0
-0.122355 -0.241184 0
-0.0862232 -0.213014 0
-0.0497878 -0.161231 0
-0.0201512 -0.0926336 0
-0.00401419 -0.0245548 0
-0.00106994 0.0356946 0
-0.00491696 0.0851313 0
-0.0116957 0.117497 0
-0.0204799 0.138036 0
-0.0304886 0.150984 0
-0.041162 0.159138 0
-0.0521433 0.164034 0
-0.0632227 0.166328 0
-0.0742802 0.166165 0
-0.085244 0.163429 0
-0.0960647 0.157898 0
-0.106701 0.149331 0
-0.117115 0.137516 0
-0.127271 0.122301 0
-0.137134 0.103621 0
-0.146676 0.0815077 0
-0.155869 0.0561005 0
-0.164671 0.0276442 0
-0.173004 -0.00351367 0
-0.180737 -0.0369296 0
-0.187646 -0.0723756 0
-0.193298 -0.109535 0
-0.196896 -0.147851 0
-0.197218 -0.186211 0
-0.192644 -0.22251 0
-0.181352 -0.253201 0
-0.161754 -0.272972 0
-0.133227 -0.274879 0
-0.0971686 -0.25151 0
-0.0581689 -0.198171 0
-0.0243933 -0.119106 0
-0.00502188 -0.0335908 0
-0.000808199 0.0375728 0
-0.00388308 0.0901751 0
-0.00954211 0.124891 0
-0.0170633 0.146947 0
-0.0257249 0.160743 0
-0.0349598 0.169287 0
-0.0443894 0.174295 0
-0.0537909 0.176547 0
-0.0630479 0.17626 0
-0.0721077 0.173357 0
-0.0809533 0.167636 0
-0.089587 0.158864 0
-0.0980233 0.146834 0
-0.106288 0.131404 0
-0.114422 0.112515 0
-0.122479 0.0902131 0
-0.130534 0.0646422 0
-0.138666 0.0360364 0
-0.146936 0.00469754 0
-0.155332 -0.0290116 0
-0.163756 -0.0649604 0
-0.171913 -0.103142 0
-0.179106 -0.143453 0
-0.184095 -0.185298 0
-0.185056 -0.227037 0
-0.179703 -0.265319 0
-0.165686 -0.294468 0
-0.141361 -0.306235 0
-0.107036 -0.290537 0
-0.0666483 -0.238531 0
-0.0290614 -0.150108 0
-0.00620419 -0.0448169 0
-0.000546889 0.0389279 0
-0.00282871 0.0941767 0
-0.00729809 0.131018 0
-0.0134352 0.154479 0
-0.0205847 0.169022 0
-0.0281796 0.177837 0
-0.0358241 0.182819 0
-0.0432866 0.184887 0
-0.050458 0.184348 0
-0.0573097 0.18118 0
-0.063862 0.17521 0
-0.0701646 0.166225 0
-0.0762882 0.154032 0
-0.0823213 0.138503 0
-0.0883725 0.1196 0
-0.0945748 0.0973884 0
-0.10109 0.072037 0
-0.108106 0.0437899 0
-0.115814 0.0129215 0
-0.124343 -0.0203097 0
-0.133743 -0.0558389 0
-0.143892 -0.0939578 0
-0.154271 -0.135065 0
-0.163745 -0.179222 0
-0.170423 -0.225475 0
-0.171677 -0.27098 0
-0.164446 -0.310055 0
-0.145978 -0.333441 0
-0.115212 -0.328421 0
-0.0749241 -0.281323 0
-0.0341272 -0.1857 0
-0.00759445 -0.0586156 0
-0.000310441 0.0397852 0
-0.00184641 0.0971372 0
-0.00514348 0.135824 0
-0.0098551 0.160522 0
-0.0153932 0.175667 0
-0.0212011 0.184595 0
-0.0268775 0.189382 0
-0.0321916 0.191101 0
-0.0370508 0.190165 0
-0.0414581 0.186622 0
-0.0454777 0.18034 0
-0.049212 0.171132 0
-0.0527909 0.158828 0
-0.0563661 0.143316 0
-0.0601116 0.124583 0
-0.0642268 0.102722 0
-0.0689424 0.0779339 0
-0.0745238 0.0504904 0
-0.0812625 0.0206671 0
-0.0894334 -0.0113554 0
-0.0992323 -0.0455947 0
-0.11071 -0.0825751 0
-0.123587 -0.123191 0
-0.136968 -0.168242 0
-0.149078 -0.217667 0
-0.157144 -0.269469 0
-0.157536 -0.318405 0
-0.146406 -0.354689 0
-0.121092 -0.363252 0
-0.0826728 -0.325199 0
-0.0395731 -0.22572 0
-0.00924545 -0.0754555 0
-0.000126523 0.0402222 0
-0.00104329 0.0991529 0
-0.00328856 0.139351 0
-0.00662536 0.165043 0
-0.0105228 0.180581 0
-0.0144497 0.189416 0
-0.0180193 0.193807 0
-0.0210204 0.194991 0
-0.0233912 0.193505 0
-0.0251778 0.189476 0
-0.0264962 0.182824 0
-0.0275071 0.173394 0
-0.0284025 0.16104 0
-0.0293989 0.145675 0
-0.0307341 0.127305 0
-0.0326668 0.106049 0
-0.0354804 0.0821368 0
-0.0394875 0.055876 0
-0.0450336 0.0275664 0
-0.0524847 -0.00263271 0
-0.0621522 -0.034851 0
-0.0742405 -0.069753 0
-0.0887316 -0.108644 0
-0.105079 -0.153061 0
-0.121841 -0.203975 0
-0.136364 -0.260571 0
-0.144713 -0.318562 0
-0.142078 -0.368298 0
-0.12407 -0.392964 0
-0.0895375 -0.368439 0
-0.0453899 -0.269727 0
-0.0112325 -0.0959334 0
-2.79919e-05 0.0403767 0
-0.000546673 0.100434 0
-0.00198092 0.141749 0
-0.00409438 0.168095 0
-0.00639041 0.183723 0
-0.00838483 0.192196 0
-0.00973896 0.195952 0
-0.0102898 0.196399 0
-0.0100292 0.194208 0
-0.00906198 0.189593 0
-0.00756557 0.182529 0
-0.0057634 0.172898 0
-0.00391247 0.160581 0
-0.00229492 0.145513 0
-0.00121131 0.127719 0
-0.000976854 0.107334 0
-0.00191859 0.0846074 0
-0.0043742 0.0598681 0
-0.00869491 0.0334411 0
-0.0152516 0.00550037 0
-0.0244042 -0.024164 0
-0.0364572 -0.0562988 0
-0.0516126 -0.092452 0
-0.0697341 -0.134784 0
-0.0899074 -0.185317 0
-0.109932 -0.244681 0
-0.125948 -0.310087 0
-0.132496 -0.372861 0
-0.123493 -0.415411 0
-0.0950791 -0.408939 0
-0.0515478 -0.316906 0
-0.0136469 -0.120813 0
-5.83733e-05 0.040463 0
-0.000518909 0.101327 0
-0.00152252 0.143294 0
-0.00266704 0.169808 0
-0.0034559 0.185095 0
-0.00348698 0.192849 0
-0.0025202 0.195685 0
-0.000484049 0.19518 0
0.00254487 0.192137 0
0.00638257 0.186859 0
0.0107769 0.179373 0
0.0154318 0.169597 0
0.020022 0.157441 0
0.0242029 0.142856 0
0.0276165 0.125879 0
0.0299001 0.106655 0
0.0306958 0.085432 0
0.0296611 0.0625338 0
0.0264762 0.038281 0
0.0208414 0.012852 0
0.0124412 -0.0139626 0
0.000942174 -0.0429482 0
-0.0140057 -0.0756994 0
-0.0326273 -0.114793 0
-0.0546492 -0.163112 0
-0.0786511 -0.222859 0
-0.101345 -0.293199 0
-0.117147 -0.3674 0
-0.118556 -0.428465 0
-0.0986723 -0.444184 0
-0.0579255 -0.36594 0
-0.0165729 -0.151033 0
-0.000284015 0.0408054 0
-0.00118811 0.102349 0
-0.00230198 0.144389 0
-0.00282203 0.170377 0
-0.00221927 0.184711 0
-0.000233821 0.191278 0
0.00320321 0.192853 0
0.0080035 0.191176 0
0.0139539 0.187162 0
0.0207698 0.181181 0
0.0281179 0.173308 0
0.035633 0.163492 0
0.0429293 0.151659 0
0.0496087 0.137777 0
0.0552685 0.121885 0
0.0595125 0.104122 0
0.0619653 0.0847168 0
0.062288 0.0639609 0
0.0601919 0.0421348 0
0.0554375 0.0193873 0
0.0478041 -0.0044642 0
0.0370535 -0.0301971 0
0.0229017 -0.0593508 0
0.00492916 -0.0945478 0
-0.0172788 -0.139128 0
-0.0433194 -0.196801 0
-0.0709999 -0.268883 0
-0.095369 -0.351545 0
-0.10814 -0.430139 0
-0.0993266 -0.471207 0
-0.0641742 -0.414815 0
-0.0200393 -0.187645 0
-0.000818209 0.0419077 0
-0.00290318 0.104236 0
-0.00484278 0.145556 0
-0.00512759 0.170016 0
-0.00320269 0.182546 0
0.000937198 0.187319 0
0.00706632 0.187246 0
0.0148542 0.184194 0
0.0239131 0.179134 0
0.0338367 0.172469 0
0.044208 0.1643 0
0.0546014 0.154591 0
0.0645855 0.14328 0
0.0737274 0.130335 0
0.0816005 0.115793 0
0.0877964 0.0997731 0
0.0919416 0.0824676 0
0.0937148 0.0641142 0
0.0928622 0.0449304 0
0.0891982 0.02501 0
0.0825804 0.00416435 0
0.0728353 -0.01833 0
0.059706 -0.0439368 0
0.0428057 -0.0750889 0
0.0216247 -0.115198 0
-0.00440141 -0.168664 0
-0.0348112 -0.23893 0
-0.0662012 -0.32574 0
-0.0905986 -0.418776 0
-0.0954161 -0.486567 0
-0.0694895 -0.460535 0
-0.0239327 -0.231617 0
-0.00186443 0.0445903 0
-0.0062163 0.10799 0
-0.00984575 0.147371 0
-0.0102136 0.168853 0
-0.00687046 0.17844 0
-0.000269032 0.180683 0
0.00891332 0.17857 0
0.0200153 0.17398 0
0.0324397 0.167864 0
0.0456508 0.160604 0
0.0591572 0.152288 0
0.0724915 0.142876 0
0.0851998 0.132302 0
0.0968405 0.12053 0
0.106989 0.107577 0
0.11525 0.0935323 0
0.121273 0.0785403 0
0.124768 0.062773 0
0.12552 0.0463729 0
0.123384 0.0293673 0
0.118266 0.0115428 0
0.110051 -0.00774851 0
0.0984976 -0.0298354 0
0.0831937 -0.0569861 0
0.0635275 -0.0924537 0
0.0386525 -0.140507 0
0.00780367 -0.205828 0
-0.0282068 -0.291441 0
-0.0635214 -0.393363 0
-0.0843033 -0.486381 0
-0.0722446 -0.498706 0
-0.0278487 -0.283398 0
-0.0037816 0.0502363 0
-0.0119602 0.114874 0
-0.0181221 0.150278 0
-0.0185416 0.166734 0
-0.0132803 0.171955 0
-0.00357857 0.170865 0
0.0092623 0.166365 0
0.0241785 0.160167 0
0.0403486 0.153083 0
0.0571264 0.145397 0
0.0739737 0.137141 0
0.0904121 0.128249 0
0.105997 0.118636 0
0.120308 0.108245 0
0.132952 0.0970698 0
0.14357 0.0851597 0
0.151855 0.072605 0
0.157559 0.0595094 0
0.160503 0.0459413 0
0.160573 0.0318645 0
0.157697 0.0170398 0
0.151782 0.00088419 0
0.142589 -0.0177216 0
0.129659 -0.0408657 0
0.112242 -0.0714912 0
0.0891829 -0.113535 0
0.0590211 -0.171789 0
0.0207531 -0.251202 0
-0.0235143 -0.35402 0
-0.0618581 -0.466598 0
-0.0694032 -0.523003 0
-0.0308267 -0.342074 0
-0.00713854 0.0611565 0
-0.0211413 0.126136 0
-0.030052 0.154089 0
-0.0295009 0.162791 0
-0.0209509 0.162086 0
-0.00687901 0.15696 0
0.0106565 0.149894 0
0.030187 0.142192 0
0.0507112 0.134364 0
0.0715309 0.126518 0
0.0921136 0.11859 0
0.112014 0.110462 0
0.130833 0.102019 0
0.148204 0.0931787 0
0.163792 0.0839041 0
0.177296 0.0742022 0
0.188463 0.0641105 0
0.197092 0.0536713 0
0.203036 0.0428921 0
0.20619 0.0316891 0
0.206469 0.0198123 0
0.203754 0.00674179 0
0.19782 -0.00845273 0
0.188156 -0.0275403 0
0.173806 -0.0530499 0
0.153271 -0.0883825 0
0.124446 -0.137955 0
0.0849816 -0.207304 0
0.0339472 -0.302616 0
-0.0219142 -0.423796 0
-0.0555586 -0.524615 0
-0.0308484 -0.403749 0
-0.0125455 0.0808405 0
-0.0338979 0.141807 0
-0.043326 0.156757 0
-0.0383558 0.154602 0
-0.0233762 0.146745 0
-0.00249128 0.137344 0
0.0215331 0.12795 0
0.0469886 0.119149 0
0.072864 0.111007 0
0.0985239 0.103396 0
0.12352 0.0961335 0
0.147497 0.0890426 0
0.170142 0.0819741 0
0.191175 0.0748195 0
0.210338 0.0675128 0
0.227402 0.0600247 0
0.242174 0.0523493 0
0.254494 0.0444831 0
0.264239 0.0363929 0
0.271299 0.0279737 0
0.275557 0.01899 0
0.276841 0.00899563 0
0.274853 -0.00278572 0
0.269004 -0.0176938 0
0.258164 -0.0377062 0
0.240477 -0.0655039 0
0.213235 -0.104766 0
0.172972 -0.160764 0
0.116356 -0.241506 0
0.0443001 -0.356989 0
-0.021311 -0.492166 0
-0.0238106 -0.458408 0