# vtk DataFile Version 2.0
Lid-driven cavity
ASCII
DATASET STRUCTURED_POINTS
DIMENSIONS 32 32 1
ORIGIN 0.015625 0.015625 0
SPACING 0.03125 0.03125 1
POINT_DATA 1024
SCALARS pressure double 1
LOOKUP_TABLE default
31.1145
30.9744
30.7359
30.4778
30.2468
30.0659
29.9461
29.8947
29.9201
30.0328
30.2447
30.567
31.0074
31.5675
32.2403
33.0077
33.8399
34.6962
35.524
36.2639
36.8565
37.2518
37.4176
37.3465
37.06
36.606
36.0524
35.4779
34.9618
34.5737
34.3655
34.3489
31.2545
31.1086
30.9109
30.7061
30.5235
30.3795
30.2841
30.2449
30.2709
30.3721
30.56
30.8449
31.2344
31.7307
32.3281
33.0112
33.7536
34.5199
35.2623
35.9267
36.4591
36.8144
36.9639
36.9029
36.6527
36.2587
35.7833
35.294
34.8567
34.5265
34.3437
34.3321
31.5016
31.2943
31.0894
30.9036
30.7469
30.6247
30.5411
30.5016
30.5144
30.5898
30.7399
30.9766
31.3094
31.7435
32.2765
32.8967
33.5815
34.298
35.0004
35.6351
36.148
36.4928
36.6399
36.5834
36.3444
35.9684
35.5168
35.0556
34.6438
34.3294
34.1479
34.1268
31.7668
31.473
31.2348
31.0447
30.894
30.776
30.6874
30.6305
30.6121
30.6436
30.7388
30.9127
31.179
31.5474
32.0207
32.5922
33.243
33.941
34.6404
35.2856
35.8185
36.1871
36.3562
36.315
36.0823
35.7034
35.2419
34.7663
34.3373
34.0005
33.7893
33.7298
31.9696
31.5809
31.2968
31.087
30.9251
30.7923
30.6786
30.5826
30.5106
30.4751
30.4934
30.5847
30.7685
31.0607
31.4708
31.9982
32.6294
33.3319
34.0602
34.7553
35.3521
35.7894
36.0208
36.0259
35.816
35.4344
34.947
34.4285
33.9464
33.5515
33.2792
33.1552
32.0338
31.5503
31.2156
30.9755
30.7868
30.6196
30.4576
30.297
30.1438
30.013
29.9257
29.9071
29.9835
30.1787
30.5105
30.9862
31.5996
32.3206
33.1049
33.8904
34.6033
35.1689
35.5241
35.631
35.4866
35.1259
34.6153
34.0377
33.4736
32.987
32.6222
32.4106
31.8849
31.3115
30.925
30.6466
30.416
30.1934
29.9575
29.7025
29.4353
29.1737
28.9438
28.7774
28.7092
28.7725
28.9953
29.3952
29.9762
30.7163
31.5765
32.4929
33.3825
34.1535
34.719
35.0141
35.0104
34.7247
34.2177
33.5805
32.9129
32.3021
31.8123
31.4894
31.4497
30.794
30.3562
30.0318
29.7437
29.4432
29.1046
28.7209
28.3004
27.8641
27.4434
27.078
26.812
26.6902
26.7533
27.0324
27.5444
28.2851
29.2277
30.3107
31.4429
32.5127
33.4025
34.0086
34.2619
34.1458
33.7032
33.0292
32.2482
31.4837
30.835
30.3714
30.6579
29.9297
29.4415
29.0626
28.7001
28.2967
27.823
27.2712
26.6506
25.9856
25.3134
24.6817
24.1456
23.7637
23.5924
23.6801
24.0609
24.7567
25.7668
27.0386
28.4767
29.9495
31.3026
32.3811
33.0567
33.2573
32.9878
32.3356
31.4513
30.5091
29.6633
29.0239
29.4462
28.6575
28.1193
27.6762
27.2202
26.6863
26.0413
25.2762
24.4011
23.4432
22.445
21.4629
20.5644
19.8239
19.3175
19.1158
19.2747
19.846
20.8777
22.3357
24.1281
26.1067
28.078
29.8248
31.1395
31.8664
31.9423
31.423
30.4784
29.3469
28.2645
27.4054
27.7632
26.9274
26.3392
25.8207
25.2504
24.5558
23.7
22.6719
21.4812
20.1571
18.7468
17.3153
15.9434
14.7241
13.7572
13.141
12.9618
13.2915
14.2587
15.8629
18.027
20.5951
23.3373
25.9686
28.1839
29.7124
30.3821
30.1781
29.267
27.958
26.6007
25.4692
25.5741
24.7061
24.0677
23.4618
22.7553
21.8689
20.7612
19.418
17.8474
16.0788
14.1632
12.1736
10.205
8.37093
6.79854
5.61917
4.956
4.90884
5.67883
7.34125
9.84694
13.0461
16.6837
20.4097
23.8109
26.4721
28.0641
28.4448
27.7322
26.2967
24.6344
23.1686
22.8654
21.9814
21.2928
20.5879
19.7242
18.6162
17.2175
15.5095
13.4968
11.2073
8.69416
6.03784
3.34716
0.757703
-1.57335
-3.47699
-4.78737
-5.3621
-4.96004
-3.37749
-0.620191
3.18731
7.78487
12.7729
17.6328
21.7853
24.6965
26.0247
25.766
24.3134
22.3337
20.4655
19.6482
18.7651
18.0275
17.2144
16.1763
14.8223
13.1004
10.9861
8.47894
5.60338
2.41286
-1.00624
-4.53183
-8.00623
-11.2406
-14.0251
-16.1455
-17.4073
-17.5598
-16.2381
-13.3828
-9.07065
-3.53903
2.79272
9.32219
15.3058
19.9678
22.6889
23.2409
21.9599
19.6823
17.3399
15.959
15.0937
14.3109
13.3853
12.1632
10.5489
8.48435
5.93831
2.90321
-0.601692
-4.52463
-8.77517
-13.2195
-17.6788
-21.933
-25.7304
-28.8053
-30.9029
-31.78
-30.9263
-28.1816
-23.5539
-17.2253
-9.59278
-1.29946
6.77405
13.5987
18.2073
20.0239
19.1995
16.6921
13.8044
11.8579
11.0272
10.2067
9.17215
7.76804
5.89451
3.48745
0.507555
-3.06109
-7.20625
-11.8797
-16.989
-22.3908
-27.8874
-33.2297
-38.1261
-42.2613
-45.3219
-47.0312
-46.8517
-44.459
-39.7765
-32.9012
-24.1588
-14.1703
-3.89395
5.41421
12.3976
16.0047
16.0247
13.4219
9.92437
7.42478
6.64387
5.798
4.66877
3.1006
0.989906
-1.73416
-5.11975
-9.19237
-13.9482
-19.3444
-25.2883
-31.6293
-38.154
-44.5878
-50.6039
-55.8419
-59.9354
-62.5484
-63.193
-61.386
-56.9469
-49.8651
-40.3473
-28.918
-16.5235
-4.57397
5.19112
11.1389
12.486
10.0039
5.8451
2.75146
2.03305
1.18012
-0.0160777
-1.71033
-4.01071
-6.99594
-10.7242
-15.2317
-20.5243
-26.5655
-33.2645
-40.4654
-47.9422
-55.3992
-62.4805
-68.7881
-73.9099
-77.4542
-78.9892
-77.9484
-74.0411
-67.135
-57.2822
-44.8371
-30.6253
-16.0932
-3.2928
5.5074
8.73368
6.68034
1.8295
-2.06721
-2.71453
-3.54966
-4.76896
-6.5276
-8.9409
-12.0981
-16.0693
-20.903
-26.6154
-33.1774
-40.5006
-48.4261
-56.7178
-65.0635
-73.0845
-80.3546
-86.4275
-90.8692
-93.2759
-93.0898
-89.9411
-83.5696
-73.858
-60.934
-45.3924
-28.5647
-12.6789
-0.615354
5.0758
3.85611
-1.68631
-6.94403
-7.51765
-8.30299
-9.48271
-11.2168
-13.6341
-16.8396
-20.9189
-25.9344
-31.9138
-38.8352
-46.613
-55.0858
-64.01
-73.0606
-81.8422
-89.9088
-96.7929
-102.037
-105.225
-105.883
-103.611
-98.0431
-88.8963
-76.0453
-59.7643
-41.1095
-22.2925
-6.69129
2.05265
2.17409
-4.00921
-11.8109
-12.3164
-13.0117
-14.0669
-15.6565
-17.9345
-21.0311
-25.0531
-30.0793
-36.1486
-43.2461
-51.2877
-60.1096
-69.4617
-79.0094
-88.345
-97.0101
-104.525
-110.423
-114.276
-115.683
-114.271
-109.634
-101.337
-89.0099
-72.556
-52.614
-31.1579
-11.8619
0.525844
2.62264
-4.06212
-16.6311
-17.0843
-17.6388
-18.4565
-19.7454
-21.7049
-24.5048
-28.281
-33.1315
-39.1059
-46.1929
-54.3073
-63.2819
-72.8608
-82.7016
-92.3887
-101.456
-109.417
-115.804
-120.187
-122.198
-121.522
-117.772
-110.411
-98.8537
-82.6266
-61.8516
-38.0471
-14.9183
1.77466
6.68072
-0.19865
-21.4138
-21.8432
-22.188
-22.6174
-23.4058
-24.8301
-27.12
-30.4495
-34.9381
-40.6423
-47.5518
-55.5788
-64.5471
-74.1909
-84.159
-94.028
-103.327
-111.568
-118.284
-123.052
-125.509
-125.373
-122.307
-115.747
-104.93
-89.0375
-67.6274
-41.5737
-14.311
7.584
16.4977
10.0502
-26.2358
-26.682
-26.7153
-26.5492
-26.5824
-27.2165
-28.7662
-31.457
-35.4256
-40.7298
-47.3502
-55.1849
-64.0436
-73.6467
-83.6314
-93.5661
-102.975
-111.37
-118.285
-123.301
-126.059
-126.246
-123.51
-117.365
-106.97
-91.1458
-68.8999
-40.3039
-8.20256
20.3006
35.0895
30.2953
-31.2825
-31.7906
-31.3428
-30.2842
-29.2355
-28.7878
-29.3678
-31.245
-34.5669
-39.3804
-45.6447
-53.2338
-61.935
-71.4497
-81.4004
-91.3462
-100.806
-109.289
-116.325
-121.493
-124.427
-124.787
-122.115
-115.83
-105.054
-88.5877
-64.8263
-32.8413
5.4492
42.8296
66.5132
65.6621
-36.9368
-37.5237
-36.2828
-33.886
-31.3303
-29.4684
-28.8555
-29.7802
-32.3801
-36.6699
-42.5701
-49.9182
-58.4702
-67.9034
-77.8235
-87.7781
-97.2794
-105.83
-112.953
-118.208
-121.206
-121.579
-118.746
-111.925
-100.046
-81.5744
-54.7221
-17.8395
28.8096
78.5433
115.963
123.197
-43.9877
-44.5317
-41.8794
-37.4447
-32.8257
-29.1877
-27.1876
-27.0819
-28.9532
-32.7525
-38.3408
-45.5053
-53.9636
-63.3649
-73.2957
-83.2917
-92.8563
-101.483
-108.678
-113.974
-116.933
-117.123
-113.911
-106.148
-92.4403
-70.7965
-38.7426
6.04744
64.1136
131.067
189.698
212.3
-54.1363
-54.0192
-48.6575
-41.0438
-33.6367
-27.8603
-24.3447
-23.2156
-24.4321
-27.841
-33.2216
-40.3002
-48.7507
-58.1922
-68.1919
-78.2733
-87.9305
-96.6448
-103.9
-109.189
-112.006
-111.813
-107.952
-98.8084
-82.504
-56.4401
-17.2389
38.6682
113.416
203.86
294.613
345.195
-71.2637
-68.1569
-57.2433
-44.5712
-33.4817
-25.2781
-20.2449
-18.2168
-18.9451
-22.1294
-27.4498
-34.5661
-43.1078
-52.6657
-62.7894
-72.9918
-82.758
-91.5564
-98.8452
-104.07
-106.642
-105.893
-100.995
-90.024
-70.3583
-38.658
9.56103
79.5364
175.999
299.588
436.972
537.381
-104.602
-90.0739
-67.4292
-46.8926
-31.3395
-20.7081
-14.4035
-11.8116
-12.3716
-15.6018
-21.0769
-28.3942
-37.1464
-46.9034
-57.2036
-67.554
-77.4343
-86.3013
-93.5875
-98.6871
-100.919
-99.4584
-93.2241
-79.9628
-56.3484
-18.2354
40.0943
126.006
248.245
415.083
623.234
807.322
-175.421
-119.158
-73.7979
-43.0725
-23.4412
-11.5354
-5.15606
-2.95152
-4.05056
-7.84027
-13.8388
-21.6199
-30.7681
-40.8532
-51.418
-61.9748
-72.0058
-80.9626
-88.2568
-93.2354
-95.1268
-92.944
-85.325
-69.6318
-42.2119
1.77051
69.1431
169.563
317.304
535.31
857.295
1245.12
-350.628
-128.138
-49.9604
-17.5561
-1.68736
6.40887
9.76477
9.6696
6.81612
1.66959
-5.39262
-14.0169
-23.8397
-34.4694
-45.4788
-56.4028
-66.7392
-75.9461
-83.4289
-88.5095
-90.3615
-87.8889
-79.4896
-62.4879
-33.1833
13.5544
85.0725
192.429
354.452
611.13
1070.37
2014.2
VECTORS velocity double
8.30044e-05 -8.30044e-05 0
0.000169159 -3.14975e-06 0
3.4671e-05 0.000137637 0
-0.000369504 0.000266538 0
-0.0010017 0.000365659 0
-0.00180549 0.00043813 0
-0.00273511 0.00049149 0
-0.00375759 0.000530987 0
-0.0048465 0.00055793 0
-0.0059747 0.000570264 0
-0.00710883 0.000563872 0
-0.00820659 0.000533883 0
-0.00921627 0.000475803 0
-0.0100785 0.000386462 0
-0.0107298 0.000264846 0
-0.0111075 0.000112819 0
-0.0111559 -6.43983e-05 0
-0.0108333 -0.000258235 0
-0.0101204 -0.000454633 0
-0.00903003 -0.000635774 0
-0.00761232 -0.000781938 0
-0.00595626 -0.000874123 0
-0.00418483 -0.000897299 0
-0.00244375 -0.000843784 0
-0.000884009 -0.000715957 0
0.000359394 -0.000527446 0
0.00118924 -0.000302404 0
0.00156297 -7.1319e-05 0
0.0015036 0.000130683 0
0.0011082 0.000264724 0
0.00055966 0.000283812 0
0.000137924 0.000137924 0
-3.88117e-07 -0.000165621 0
-0.000249514 0.000242438 0
-0.00105716 0.000834182 0
-0.00245905 0.00137606 0
-0.00437405 0.00180334 0
-0.00669196 0.00212215 0
-0.00931058 0.00235572 0
-0.0121418 0.00252045 0
-0.0151036 0.00261917 0
-0.0181092 0.00264284 0
-0.0210592 0.0025754 0
-0.023838 0.00239891 0
-0.0263155 0.002098 0
-0.0283526 0.00166359 0
-0.0298095 0.00109599 0
-0.0305575 0.000407276 0
-0.0304908 -0.000377135 0
-0.0295415 -0.00121743 0
-0.0276937 -0.00205611 0
-0.0249956 -0.00282278 0
-0.0215674 -0.00344081 0
-0.0176021 -0.00383664 0
-0.0133569 -0.00395135 0
-0.00913477 -0.00375298 0
-0.00525402 -0.00324726 0
-0.00200978 -0.00248378 0
0.000369391 -0.00155509 0
0.00176419 -0.000587154 0
0.00219585 0.000274222 0
0.00184214 0.000870301 0
0.00104093 0.00102798 0
0.000290286 0.000566134 0
-0.000181352 1.61188e-05 0
-0.00100608 0.00113455 0
-0.00274439 0.00248803 0
-0.00532131 0.00370101 0
-0.00859286 0.00466494 0
-0.0124042 0.00538984 0
-0.0166126 0.00591496 0
-0.0210864 0.0062663 0
-0.0256958 0.00644443 0
-0.0303009 0.00642828 0
-0.034746 0.00618506 0
-0.0388586 0.00568071 0
-0.0424541 0.00488916 0
-0.0453441 0.00379953 0
-0.0473489 0.00242179 0
-0.0483103 0.000790865 0
-0.0481069 -0.00103088 0
-0.0466684 -0.0029515 0
-0.0439892 -0.00484896 0
-0.04014 -0.00657729 0
-0.0352757 -0.0079788 0
-0.0296384 -0.00890128 0
-0.0235507 -0.00921959 0
-0.0173977 -0.00885987 0
-0.0115962 -0.00782263 0
-0.00654954 -0.0061993 0
-0.00259239 -0.0041759 0
6.73198e-05 -0.00202085 0
0.0014002 -5.66144e-05 0
0.00158726 0.00136778 0
0.00102176 0.00189721 0
0.000306441 0.00116286 0
-0.000400329 0.000597799 0
-0.00191272 0.00288999 0
-0.00472593 0.00528411 0
-0.00859207 0.00734798 0
-0.0132748 0.00897225 0
-0.0185685 0.0101876 0
-0.0242948 0.0110519 0
-0.0302886 0.011597 0
-0.0363821 0.0118166 0
-0.042395 0.0116742 0
-0.0481303 0.0111196 0
-0.0533767 0.0101052 0
-0.0579159 0.00859933 0
-0.0615334 0.00659691 0
-0.0640308 0.00412661 0
-0.0652392 0.00125582 0
-0.0650319 -0.0019065 0
-0.0633367 -0.00520968 0
-0.0601448 -0.00846182 0
-0.055524 -0.0114345 0
-0.0496304 -0.0138795 0
-0.0427156 -0.0155527 0
-0.0351256 -0.0162458 0
-0.0272897 -0.0158226 0
-0.019693 -0.0142582 0
-0.0128313 -0.011672 0
-0.00714804 -0.00834362 0
-0.00295939 -0.00470149 0
-0.00038484 -0.0012834 0
0.000702925 0.00131974 0
0.000697068 0.00251661 0
0.000243272 0.00171257 0
-0.000633987 0.00163211 0
-0.00288041 0.00561449 0
-0.00683011 0.00932252 0
-0.0120307 0.0123763 0
-0.0181352 0.0147311 0
-0.0248816 0.0164688 0
-0.032059 0.0176745 0
-0.0394763 0.0183854 0
-0.0469399 0.0185853 0
-0.0542429 0.0182213 0
-0.0611625 0.0172275 0
-0.0674656 0.0155467 0
-0.0729164 0.0131478 0
-0.0772878 0.0100374 0
-0.0803724 0.00626817 0
-0.0819935 0.00194371 0
-0.0820156 -0.00277952 0
-0.0803507 -0.0076968 0
-0.0769664 -0.0125509 0
-0.0719014 -0.0170312 0
-0.0652835 -0.0207941 0
-0.0573441 -0.0234923 0
-0.0484259 -0.0248145 0
-0.0389803 -0.0245355 0
-0.0295486 -0.0225737 0
-0.0207203 -0.0190464 0
-0.0130648 -0.0143081 0
-0.00703976 -0.00895065 0
-0.00289551 -0.00375305 0
-0.000600024 0.000406133 0
0.000195695 0.00264036 0
0.000141238 0.00209708 0
-0.000870377 0.00313648 0
-0.00385634 0.0093425 0
-0.00894213 0.01463 0
-0.0154612 0.0187885 0
-0.0229509 0.0219132 0
-0.0310928 0.024175 0
-0.0396479 0.0257007 0
-0.0484073 0.0265359 0
-0.0571628 0.026654 0
-0.0656939 0.0259866 0
-0.0737665 0.0244544 0
-0.0811381 0.0219943 0
-0.0875656 0.0185786 0
-0.0928151 0.0142275 0
-0.0966703 0.00901776 0
-0.0989409 0.0030859 0
-0.0994706 -0.00336997 0
-0.0981403 -0.0101015 0
-0.0948746 -0.0167962 0
-0.0896611 -0.0230645 0
-0.0825762 -0.0284636 0
-0.0738076 -0.0325307 0
-0.0636721 -0.0348297 0
-0.052625 -0.0350131 0
-0.041253 -0.0328997 0
-0.0302422 -0.0285593 0
-0.020309 -0.022384 0
-0.0120931 -0.0151156 0
-0.00602852 -0.0077969 0
-0.0022277 -0.00164632 0
-0.000422761 0.00209215 0
1.93316e-05 0.00225765 0
-0.00109978 0.00510664 0
-0.00479803 0.0140566 0
-0.0109691 0.0211728 0
-0.0187382 0.0265339 0
-0.027533 0.0304523 0
-0.0369838 0.0332286 0
-0.0468299 0.0350483 0
-0.0568529 0.0359708 0
-0.0668401 0.0359618 0
-0.0765687 0.0349385 0
-0.0858036 0.03281 0
-0.0943015 0.0295081 0
-0.101817 0.0250077 0
-0.108109 0.0193398 0
-0.112947 0.0125992 0
-0.116119 0.00494733 0
-0.117435 -0.0033859 0
-0.116733 -0.0121182 0
-0.113882 -0.0208961 0
-0.108804 -0.0292561 0
-0.101507 -0.0366544 0
-0.0921131 -0.042502 0
-0.0808915 -0.0462155 0
-0.0682773 -0.0472887 0
-0.0548838 -0.0453895 0
-0.0414863 -0.0404778 0
-0.0289622 -0.032923 0
-0.0181741 -0.0235806 0
-0.00980313 -0.0137675 0
-0.00417438 -0.0051053 0
-0.00114797 0.000719787 0
-0.000118517 0.00215847 0
-0.00131203 0.00751844 0
-0.00566435 0.0196953 0
-0.0128252 0.0288659 0
-0.0217301 0.0355148 0
-0.0317098 0.0402459 0
-0.0423521 0.0435282 0
-0.0533817 0.0456243 0
-0.0645785 0.0466146 0
-0.0757335 0.0464602 0
-0.0866299 0.0450653 0
-0.097039 0.0423273 0
-0.106721 0.0381707 0
-0.115429 0.0325687 0
-0.122914 0.0255556 0
-0.128927 0.0172343 0
-0.133223 0.00778069 0
-0.135571 -0.00255477 0
-0.135762 -0.0134607 0
-0.133606 -0.0245603 0
-0.128952 -0.0353245 0
-0.121725 -0.0451103 0
-0.111967 -0.0531974 0
-0.0998714 -0.0588374 0
-0.085822 -0.0613304 0
-0.0704262 -0.0601372 0
-0.0545235 -0.0550304 0
-0.0391482 -0.0462698 0
-0.0254167 -0.0347534 0
-0.0143259 -0.0220564 0
-0.00650228 -0.0102687 0
-0.00200346 -0.00164207 0
-0.000276272 0.00176368 0
-0.00149623 0.0103267 0
-0.00641375 0.0261569 0
-0.0144277 0.0375791 0
-0.0243125 0.0455913 0
-0.0353186 0.0511551 0
-0.0470014 0.0549441 0
-0.0590774 0.0573141 0
-0.0713308 0.058375 0
-0.0835625 0.0580864 0
-0.0955676 0.0563405 0
-0.107128 0.053021 0
-0.118009 0.0480407 0
-0.127965 0.041363 0
-0.136735 0.0330159 0
-0.144048 0.0230995 0
-0.149629 0.0117926 0
-0.153203 -0.000643878 0
-0.154512 -0.0138717 0
-0.153311 -0.0275065 0
-0.149377 -0.0409674 0
-0.142548 -0.0535227 0
-0.132768 -0.0643233 0
-0.120127 -0.0724479 0
-0.10492 -0.076976 0
-0.0877012 -0.0771066 0
-0.0693269 -0.072338 0
-0.0509587 -0.0627056 0
-0.033974 -0.0490339 0
-0.0197478 -0.033093 0
-0.00931505 -0.0174884 0
-0.00303725 -0.00519892 0
-0.000465662 0.00102174 0
-0.00164136 0.0134643 0
-0.00700555 0.033301 0
-0.0156976 0.047141 0
-0.0263676 0.0565843 0
-0.0382046 0.0630053 0
-0.0507398 0.0673119 0
-0.0636868 0.0699692 0
-0.0768377 0.0711242 0
-0.090007 0.0707382 0
-0.103005 0.0686915 0
-0.115626 0.0648512 0
-0.127646 0.0591119 0
-0.138818 0.0514195 0
-0.148873 0.0417847 0
-0.157524 0.0302945 0
-0.164465 0.0171199 0
-0.169386 0.00252425 0
-0.171984 -0.0131328 0
-0.171967 -0.0294635 0
-0.169052 -0.04586 0
-0.162991 -0.0615202 0
-0.153615 -0.075482 0
-0.140887 -0.0866572 0
-0.12497 -0.093891 0
-0.106304 -0.0960763 0
-0.085698 -0.0923489 0
-0.064378 -0.0823829 0
-0.0439555 -0.0667639 0
-0.026222 -0.0473226 0
-0.0127365 -0.0271771 0
-0.00431148 -0.0102131 0
-0.000701616 -0.000145535 0
-0.00173717 0.0168428 0
-0.00740263 0.0409521 0
-0.0165636 0.0573428 0
-0.0277893 0.0682782 0
-0.0402256 0.0755847 0
-0.0533863 0.0804284 0
-0.0669842 0.0833976 0
-0.0808209 0.0846835 0
-0.0947259 0.0842532 0
-0.108526 0.0819746 0
-0.122032 0.077695 0
-0.135029 0.0712855 0
-0.147278 0.0626665 0
-0.158508 0.0518233 0
-0.168422 0.0388199 0
-0.176698 0.0238114 0
-0.182999 0.00705531 0
-0.186986 -0.0110785 0
-0.188336 -0.0301848 0
-0.186724 -0.0496662 0
-0.18182 -0.0686792 0
-0.173342 -0.0861772 0
-0.161103 -0.100928 0
-0.14509 -0.11155 0
-0.125568 -0.116604 0
-0.103211 -0.114785 0
-0.079218 -0.105259 0
-0.0553655 -0.0881624 0
-0.033859 -0.065164 0
-0.016885 -0.0397952 0
-0.00589261 -0.0170123 0
-0.00100082 -0.00184797 0
-0.00177535 0.0203553 0
-0.00757489 0.0489046 0
-0.0169677 0.0679441 0
-0.0284898 0.0804247 0
-0.0412614 0.0886461 0
-0.054783 0.0940494 0
-0.0687662 0.0973577 0
-0.0830209 0.0988148 0
-0.0973912 0.0983971 0
-0.111721 0.095961 0
-0.125839 0.0913321 0
-0.139547 0.0843542 0
-0.152618 0.0749169 0
-0.164789 0.0629744 0
-0.175768 0.0485619 0
-0.185234 0.031811 0
-0.192842 0.0129652 0
-0.198235 -0.00760847 0
-0.201073 -0.029467 0
-0.201005 -0.0520637 0
-0.197641 -0.0745501 0
-0.190587 -0.095838 0
-0.179498 -0.114595 0
-0.164149 -0.129245 0
-0.144564 -0.138016 0
-0.121186 -0.139108 0
-0.0950747 -0.13104 0
-0.0680541 -0.113255 0
-0.0426858 -0.0869466 0
-0.0218509 -0.0558215 0
-0.00784331 -0.0259861 0
-0.00138025 -0.00422904 0
-0.00175063 0.0238813 0
-0.0075029 0.0569305 0
-0.0168714 0.0786796 0
-0.0284088 0.0927487 0
-0.0412261 0.101911 0
-0.0548121 0.107892 0
-0.0688742 0.11156 0
-0.0832277 0.11322 0
-0.0977293 0.112863 0
-0.112241 0.110336 0
-0.12661 0.105444 0
-0.14066 0.0980009 0
-0.154186 0.0878655 0
-0.166947 0.0749586 0
-0.178674 0.0592836 0
-0.189063 0.0409447 0
-0.197788 0.0201644 0
-0.2045 -0.00270255 0
-0.208859 -0.0271764 0
-0.210504 -0.0527772 0
-0.209009 -0.0786959 0
-0.203894 -0.103861 0
-0.194652 -0.126904 0
-0.180824 -0.146113 0
-0.162137 -0.159421 0
-0.138708 -0.16451 0
-0.111318 -0.159139 0
-0.0816893 -0.141805 0
-0.0526159 -0.112838 0
-0.0276773 -0.0757038 0
-0.0102164 -0.0375723 0
-0.00185648 -0.00746576 0
-0.00166176 0.0272937 0
-0.00718116 0.0647898 0
-0.0162617 0.0892693 0
-0.0275225 0.104957 0
-0.0400806 0.115078 0
-0.053413 0.121643 0
-0.0672183 0.125676 0
-0.0813127 0.127552 0
-0.0955628 0.127283 0
-0.109847 0.124712 0
-0.124036 0.119626 0
-0.137981 0.111813 0
-0.151505 0.101103 0
-0.164408 0.087385 0
-0.176456 0.0706326 0
-0.187393 0.0509219 0
-0.196931 0.0284502 0
-0.20476 0.00355323 0
-0.210553 -0.0232806 0
-0.213965 -0.0516167 0
-0.214577 -0.0807394 0
-0.211847 -0.109662 0
-0.205125 -0.137066 0
-0.193712 -0.161192 0
-0.176994 -0.179749 0
-0.154673 -0.189932 0
-0.127116 -0.188664 0
-0.0957545 -0.17327 0
-0.063432 -0.142768 0
-0.0343455 -0.099798 0
-0.0130492 -0.0522353 0
-0.00244486 -0.0117671 0
-0.00151222 0.0304677 0
-0.00662073 0.0722437 0
-0.0151561 0.0994313 0
-0.025851 0.116751 0
-0.037843 0.127835 0
-0.0505965 0.134973 0
-0.0637961 0.139352 0
-0.0772537 0.141429 0
-0.0908426 0.141246 0
-0.104458 0.13865 0
-0.117995 0.133415 0
-0.131336 0.12531 0
-0.144346 0.114141 0
-0.156872 0.0997744 0
-0.168738 0.0821585 0
-0.179751 0.0613451 0
-0.189691 0.0375055 0
-0.19831 0.0109466 0
-0.20532 -0.0178714 0
-0.210423 -0.0485111 0
-0.213247 -0.08041 0
-0.213228 -0.112741 0
-0.209607 -0.14433 0
-0.201459 -0.173489 0
-0.18781 -0.19782 0
-0.167881 -0.214109 0
-0.141487 -0.218438 0
-0.109571 -0.206774 0
-0.0747858 -0.176373 0
-0.0417662 -0.128299 0
-0.0163601 -0.0704363 0
-0.00315934 -0.0173713 0
-0.00131055 0.0332904 0
-0.0058505 0.0790694 0
-0.0136056 0.108896 0
-0.0234632 0.127839 0
-0.0345953 0.139871 0
-0.0464537 0.147548 0
-0.0587041 0.152227 0
-0.0711492 0.154457 0
-0.0836664 0.154324 0
-0.0961672 0.151688 0
-0.108573 0.146319 0
-0.120803 0.137976 0
-0.132769 0.126451 0
-0.144373 0.111594 0
-0.155508 0.0933408 0
-0.16606 0.071727 0
-0.175898 0.0469018 0
-0.184866 0.0191378 0
-0.192758 -0.0111599 0
-0.19935 -0.0435283 0
-0.204332 -0.0775874 0
-0.207177 -0.112737 0
-0.207073 -0.148059 0
-0.202908 -0.182072 0
-0.193363 -0.212432 0
-0.177136 -0.235653 0
-0.153379 -0.247045 0
-0.122345 -0.241116 0
-0.0862129 -0.212949 0
-0.0497796 -0.161176 0
-0.0201469 -0.0925983 0
-0.00401312 -0.0245438 0
-0.00107014 0.0356711 0
-0.00491732 0.0850758 0
-0.0116956 0.117423 0
-0.0204786 0.137952 0
-0.0304862 0.150897 0
-0.0411587 0.159053 0
-0.0521399 0.163953 0
-0.0632201 0.166255 0
-0.0742793 0.166102 0
-0.0852459 0.163377 0
-0.0960704 0.15786 0
-0.106712 0.149307 0
-0.117131 0.137506 0
-0.127293 0.122304 0
-0.137162 0.103636 0
-0.14671 0.0815321 0
-0.155908 0.0561324 0
-0.164714 0.0276811 0
-0.17305 -0.0034743 0
-0.180784 -0.0368895 0
-0.187692 -0.0723359 0
-0.193339 -0.109496 0
-0.196932 -0.147811 0
-0.197247 -0.186169 0
-0.192664 -0.222464 0
-0.181363 -0.253149 0
-0.161758 -0.272912 0
-0.133225 -0.274815 0
-0.0971627 -0.251445 0
-0.0581628 -0.198114 0
-0.0243896 -0.119067 0
-0.00502087 -0.0335777 0
-0.000808752 0.03755 0
-0.00388482 0.0901202 0
-0.00954482 0.124817 0
-0.0170665 0.146863 0
-0.0257283 0.160656 0
-0.0349636 0.169202 0
-0.0443942 0.174216 0
-0.0537975 0.176476 0
-0.0630571 0.1762 0
-0.0721204 0.17331 0
-0.0809702 0.167602 0
-0.0896089 0.158845 0
-0.0980509 0.14683 0
-0.106322 0.131413 0
-0.114461 0.112536 0
-0.122524 0.0902432 0
-0.130584 0.064679 0
-0.138721 0.0360769 0
-0.146993 0.00473879 0
-0.155391 -0.0289718 0
-0.163813 -0.0649232 0
-0.171966 -0.103108 0
-0.179154 -0.143419 0
-0.184136 -0.185264 0
-0.185088 -0.227 0
-0.179725 -0.265276 0
-0.165699 -0.294417 0
-0.141365 -0.306177 0
-0.107035 -0.290476 0
-0.0666448 -0.238473 0
-0.0290586 -0.150067 0
-0.00620329 -0.0448019 0
-0.000547748 0.0389065 0
-0.00283171 0.0941237 0
-0.00730347 0.130945 0
-0.0134425 0.154396 0
-0.0205937 0.168936 0
-0.0281902 0.177754 0
-0.0358367 0.182742 0
-0.0433017 0.184819 0
-0.0504763 0.184291 0
-0.0573318 0.181137 0
-0.0638885 0.175182 0
-0.0701961 0.166212 0
-0.076325 0.154034 0
-0.0823635 0.138518 0
-0.0884201 0.119626 0
-0.0946277 0.0974238 0
-0.101148 0.0720784 0
-0.108168 0.0438337 0
-0.115878 0.0129646 0
-0.124408 -0.0202701 0
-0.133806 -0.0558039 0
-0.143953 -0.0939274 0
-0.154327 -0.135038 0
-0.163794 -0.179196 0
-0.170463 -0.225446 0
-0.171708 -0.270947 0
-0.164467 -0.310013 0
-0.14599 -0.333391 0
-0.115217 -0.328365 0
-0.0749235 -0.281267 0
-0.0341254 -0.185657 0
-0.00759372 -0.0585989 0
-0.000311552 0.0397658 0
-0.0018505 0.0970873 0
-0.00515125 0.135754 0
-0.00986623 0.160441 0
-0.0154072 0.175583 0
-0.0212179 0.184514 0
-0.0268971 0.189307 0
-0.0322144 0.191035 0
-0.0370772 0.190112 0
-0.0414885 0.186583 0
-0.0455122 0.180316 0
-0.0492511 0.171124 0
-0.0528345 0.158834 0
-0.0564142 0.143336 0
-0.060164 0.124615 0
-0.0642832 0.102762 0
-0.0690022 0.077979 0
-0.0745863 0.050537 0
-0.0813268 0.0207117 0
-0.0894983 -0.0113157 0
-0.0992964 -0.0455615 0
-0.110772 -0.0825483 0
-0.123645 -0.123169 0
-0.13702 -0.168222 0
-0.149124 -0.217646 0
-0.157181 -0.269445 0
-0.157564 -0.318374 0
-0.146423 -0.354648 0
-0.121101 -0.363203 0
-0.0826752 -0.325147 0
-0.0395726 -0.225677 0
-0.00924495 -0.0754376 0
-0.000127827 0.0402052 0
-0.00104827 0.0991073 0
-0.00329838 0.139285 0
-0.00663984 0.164966 0
-0.0105415 0.1805 0
-0.0144721 0.189338 0
-0.0180454 0.193736 0
-0.0210502 0.194929 0
-0.0234247 0.193456 0
-0.0252152 0.189441 0
-0.0265374 0.182804 0
-0.027552 0.173389 0
-0.0284509 0.16105 0
-0.0294505 0.145699 0
-0.0307884 0.12734 0
-0.0327235 0.106091 0
-0.0355388 0.0821842 0
-0.039547 0.0559241 0
-0.0450937 0.0276117 0
-0.0525447 -0.00259324 0
-0.0622114 -0.0348191 0
-0.0742981 -0.0697288 0
-0.0887867 -0.108626 0
-0.10513 -0.153047 0
-0.121887 -0.203962 0
-0.136404 -0.260555 0
-0.144744 -0.31854 0
-0.1421 -0.368267 0
-0.124083 -0.392924 0
-0.0895428 -0.368393 0
-0.0453907 -0.269686 0
-0.0112323 -0.0959148 0
-2.94313e-05 0.0403625 0
-0.000552333 0.100393 0
-0.00199239 0.141689 0
-0.00411169 0.168023 0
-0.006413 0.183647 0
-0.00841219 0.192122 0
-0.00977073 0.195884 0
-0.0103258 0.196341 0
-0.0100691 0.194162 0
-0.00910546 0.189562 0
-0.00761233 0.182512 0
-0.00581301 0.172896 0
-0.00396435 0.160594 0
-0.00234845 0.145539 0
-0.00126582 0.127755 0
-0.00103168 0.107377 0
-0.00197312 0.0846552 0
-0.00442794 0.0599162 0
-0.00874756 0.0334859 0
-0.015303 0.00553905 0
-0.0244545 -0.0241333 0
-0.0365063 -0.0562762 0
-0.0516603 -0.0924363 0
-0.0697799 -0.134773 0
-0.0899503 -0.185309 0
-0.109971 -0.244671 0
-0.125981 -0.310073 0
-0.132521 -0.372839 0
-0.123509 -0.415379 0
-0.0950869 -0.4089 0
-0.05155 -0.316868 0
-0.013647 -0.120794 0
-5.98962e-05 0.0404518 0
-0.00052504 0.101292 0
-0.00153525 0.14324 0
-0.00268661 0.169742 0
-0.00348181 0.185024 0
-0.00351858 0.19278 0
-0.002557 0.195622 0
-0.00052556 0.195126 0
0.00249925 0.192095 0
0.00633352 0.18683 0
0.0107252 0.179359 0
0.0153782 0.169597 0
0.0199676 0.157455 0
0.0241485 0.142882 0
0.027563 0.125915 0
0.0298483 0.106698 0
0.0306464 0.0854782 0
0.0296145 0.0625799 0
0.0264325 0.0383238 0
0.0208002 0.0128889 0
0.0124018 -0.0139332 0
0.000903875 -0.0429265 0
-0.0140435 -0.0756845 0
-0.0326648 -0.114784 0
-0.0546858 -0.163106 0
-0.0786857 -0.222853 0
-0.101376 -0.293191 0
-0.117172 -0.367386 0
-0.118574 -0.428442 0
-0.098682 -0.444152 0
-0.0579288 -0.365907 0
-0.0165733 -0.151014 0
-0.000285581 0.0407973 0
-0.00119452 0.102321 0
-0.00231556 0.144343 0
-0.0028433 0.170319 0
-0.00224785 0.184647 0
-0.000269117 0.191215 0
0.00316188 0.192795 0
0.007957 0.191127 0
0.0139032 0.187123 0
0.0207157 0.181155 0
0.0280618 0.173296 0
0.035576 0.163493 0
0.0428726 0.151673 0
0.0495535 0.137801 0
0.0552159 0.121918 0
0.0594634 0.104161 0
0.0619203 0.0847595 0
0.0622474 0.0640034 0
0.0601555 0.0421743 0
0.0554047 0.0194214 0
0.0477739 -0.0044366 0
0.037025 -0.0301762 0
0.0228738 -0.0593362 0
0.00490104 -0.0945384 0
-0.0173076 -0.139122 0
-0.0433482 -0.196797 0
-0.0710272 -0.268879 0
-0.0953927 -0.351537 0
-0.108158 -0.430123 0
-0.0993374 -0.471183 0
-0.0641785 -0.414787 0
-0.02004 -0.187628 0
-0.000819782 0.0419026 0
-0.0029097 0.104214 0
-0.0048568 0.145518 0
-0.00514998 0.169965 0
-0.00323332 0.182489 0
0.000898936 0.187262 0
0.00702127 0.187194 0
0.0148035 0.18415 0
0.0238578 0.179099 0
0.0337782 0.172446 0
0.0441478 0.164289 0
0.054541 0.154592 0
0.0645264 0.143292 0
0.0736711 0.130357 0
0.0815481 0.115823 0
0.0877489 0.0998082 0
0.0918994 0.0825053 0
0.0936782 0.0641518 0
0.0928308 0.0449654 0
0.0891713 0.0250406 0
0.0825567 0.0041895 0
0.0728138 -0.0183105 0
0.0596855 -0.0439225 0
0.0427852 -0.075079 0
0.0216035 -0.115191 0
-0.00442356 -0.16866 0
-0.0348337 -0.238926 0
-0.0662223 -0.325735 0
-0.0906158 -0.418766 0
-0.0954274 -0.48655 0
-0.0694945 -0.460513 0
-0.0239337 -0.231601 0
-0.00186596 0.0445884 0
-0.00622267 0.107975 0
-0.0098597 0.147341 0
-0.0102364 0.168812 0
-0.00690228 0.178391 0
-0.000309328 0.180635 0
0.00886549 0.178525 0
0.0199612 0.173942 0
0.0323806 0.167834 0
0.0455885 0.160584 0
0.0590934 0.152277 0
0.0724279 0.142876 0
0.0851383 0.132312 0
0.0967825 0.120548 0
0.106936 0.107602 0
0.115203 0.0935617 0
0.121232 0.078572 0
0.124734 0.0628048 0
0.125491 0.0464027 0
0.12336 0.0293937 0
0.118246 0.0115649 0
0.110034 -0.00773083 0
0.0984817 -0.0298218 0
0.0831782 -0.056976 0
0.0635117 -0.0924463 0
0.0386359 -0.140502 0
0.00778619 -0.205824 0
-0.0282243 -0.291438 0
-0.0635369 -0.393357 0
-0.0843144 -0.48637 0
-0.07225 -0.49869 0
-0.02785 -0.283385 0
-0.00378298 0.0502373 0
-0.011966 0.114866 0
-0.0181352 0.150256 0
-0.0185637 0.166701 0
-0.0133119 0.171916 0
-0.0036195 0.170825 0
0.00921303 0.166327 0
0.0241222 0.160134 0
0.0402871 0.153057 0
0.0570614 0.145379 0
0.0739072 0.137132 0
0.090346 0.128248 0
0.105933 0.118643 0
0.120248 0.108258 0
0.132897 0.097089 0
0.143522 0.0851828 0
0.151813 0.0726301 0
0.157524 0.0595347 0
0.160474 0.0459654 0
0.16055 0.0318862 0
0.157678 0.0170585 0
0.151766 0.000899575 0
0.142575 -0.0177093 0
0.129646 -0.0408559 0
0.112229 -0.0714835 0
0.0891699 -0.11353 0
0.0590077 -0.171785 0
0.0207393 -0.251199 0
-0.0235274 -0.354017 0
-0.0618682 -0.466591 0
-0.0694087 -0.522992 0
-0.0308282 -0.342063 0
-0.00713954 0.0611598 0
-0.0211459 0.126133 0
-0.030063 0.154076 0
-0.0295205 0.162768 0
-0.0209802 0.162057 0
-0.00691819 0.156929 0
0.0106083 0.149864 0
0.0301313 0.142165 0
0.0506498 0.134343 0
0.0714656 0.126502 0
0.0920465 0.118581 0
0.111947 0.11046 0
0.130768 0.102023 0
0.148143 0.0931879 0
0.163736 0.0839176 0
0.177247 0.0742188 0
0.18842 0.0641289 0
0.197056 0.0536903 0
0.203005 0.0429104 0
0.206165 0.0317059 0
0.206448 0.0198271 0
0.203737 0.00675446 0
0.197806 -0.00844219 0
0.188144 -0.0275316 0
0.173795 -0.0530427 0
0.15326 -0.0883767 0
0.124435 -0.13795 0
0.0849711 -0.207301 0
0.033937 -0.302614 0
-0.0219228 -0.423794 0
-0.0555638 -0.524609 0
-0.0308499 -0.403741 0
-0.0125458 0.0808451 0
-0.0339002 0.141808 0
-0.0433331 0.15675 0
-0.0383703 0.154588 0
-0.0233999 0.146726 0
-0.00252464 0.137323 0
0.0214906 0.127929 0
0.0469383 0.11913 0
0.0728075 0.110991 0
0.0984631 0.103383 0
0.123457 0.0961256 0
0.147433 0.0890393 0
0.17008 0.0819751 0
0.191116 0.0748245 0
0.210283 0.067521 0
0.227353 0.0600353 0
0.24213 0.0523615 0
0.254456 0.0444959 0
0.264206 0.0364055 0
0.271272 0.0279856 0
0.275534 0.0190008 0
0.276822 0.00900514 0
0.274837 -0.00277757 0
0.26899 -0.0176868 0
0.258152 -0.0377003 0
0.240466 -0.065499 0
0.213226 -0.104763 0
0.172964 -0.160762 0
0.116349 -0.241504 0
0.0442937 -0.356988 0
-0.0213154 -0.492164 0
-0.0238121 -0.458403 0
-0.0191483 0.112539 0