# vtk DataFile Version 2.0
Lid-driven cavity
ASCII
DATASET STRUCTURED_POINTS
DIMENSIONS 32 32 1
ORIGIN 0.015625 0.015625 0
SPACING 0.03125 0.03125 1
POINT_DATA 1024
SCALARS pressure double 1
LOOKUP_TABLE default
40.6363
40.4593
40.1481
39.8022
39.4818
39.2172
39.0234
38.9111
38.892
38.981
39.1948
39.549
40.0551
40.7163
41.5241
42.4559
43.4731
44.523
45.5368
46.4365
47.1447
47.5962
47.7494
47.5964
47.1668
46.5257
45.7641
44.9861
44.2959
43.7841
43.5161
43.502
40.8133
40.6286
40.369
40.0917
39.8345
39.619
39.4583
39.3634
39.3464
39.4217
39.605
39.9111
40.351
40.9286
41.6378
42.4591
43.3586
44.2907
45.1929
45.9943
46.6246
47.0248
47.1584
47.0203
46.6403
46.0797
45.4219
44.7564
44.1695
43.7321
43.4953
43.4877
41.1361
40.8726
40.6034
40.3506
40.1271
39.9402
39.7955
39.7006
39.6665
39.708
39.8415
40.0837
40.4485
40.9436
41.5672
42.3052
43.1284
43.9949
44.8445
45.6073
46.2125
46.5997
46.7309
46.5997
46.2354
45.6993
45.0736
44.4458
43.8927
43.4764
43.2416
43.2234
41.4927
41.1167
40.804
40.5452
40.3294
40.1476
39.9958
39.8771
39.8011
39.7833
39.8429
40.0006
40.2757
40.6822
41.2251
41.8969
42.674
43.5148
44.3598
45.1362
45.7678
46.187
46.3479
46.2378
45.8827
45.3439
44.7064
44.0607
43.486
43.041
42.7682
42.701
41.7788
41.2784
40.9054
40.6204
40.389
40.1866
40
39.8277
39.6785
39.5695
39.5242
39.5694
39.7318
40.034
40.4899
41.1001
41.8481
42.6925
43.5739
44.4152
45.1312
45.6415
45.8861
45.8387
45.5158
44.9754
44.3057
43.6052
42.9621
42.442
42.0897
41.9384
41.8943
41.2689
40.829
40.5035
40.2353
39.9852
39.7321
39.4708
39.2101
38.9703
38.7803
38.6747
38.6896
38.858
39.2049
39.7416
40.4613
41.326
42.2786
43.2378
44.1069
44.7878
45.1981
45.2884
45.0556
44.5467
43.8499
43.0744
42.3256
41.6864
41.2132
40.9463
41.74
40.9955
40.4869
40.1097
39.784
39.4576
39.1023
38.711
38.2934
37.8738
37.4879
37.1792
36.9952
36.9816
37.1769
37.6062
38.276
39.1604
40.2092
41.3391
42.4414
43.3953
44.0869
44.4308
44.3898
43.9862
43.2999
42.4507
41.5689
40.7682
40.1315
39.7178
41.2178
40.3642
39.7874
39.3477
38.9431
38.5091
38.0121
37.4436
36.8151
36.1555
35.5079
34.9261
34.4706
34.2025
34.1773
34.4379
35.008
35.8858
37.0382
38.3851
39.8072
41.1577
42.282
43.0433
43.3501
43.1795
42.5869
41.6965
40.6707
39.6709
38.8268
38.2282
40.2334
39.2842
38.64
38.1261
37.6192
37.0435
36.3606
35.5608
34.6577
33.6848
32.6931
31.7475
30.9233
30.2999
29.954
29.9515
30.3385
31.1481
32.3833
33.9756
35.8002
37.6842
39.4246
40.8168
41.6909
41.9499
41.5977
40.7467
39.593
38.3647
37.2644
36.4358
38.7024
37.6735
36.9624
36.361
35.7258
34.9708
34.0528
32.9609
31.7098
30.3373
28.9017
27.48
26.1639
25.0545
24.2547
23.8595
23.9441
24.5802
25.837
27.6703
29.9596
32.5108
35.0692
37.3491
39.0759
40.0418
40.1596
39.4982
38.2771
36.8083
35.4021
34.2878
36.5563
35.466
34.6881
33.984
33.1923
32.2175
31.0115
29.5609
27.8805
26.0109
24.0173
21.9886
20.0348
18.2817
16.8639
15.9129
15.5438
15.8538
17.0198
19.041
21.8162
25.1409
28.714
32.1611
35.0807
37.1139
38.0292
37.8002
36.6396
34.9502
33.1917
31.725
33.7495
32.6183
31.7733
30.9505
29.9733
28.7373
27.1889
25.3109
23.1164
20.647
17.9735
15.1962
12.4444
9.87163
7.64865
5.95072
4.94104
4.75092
5.65528
7.75004
10.9698
15.1181
19.8618
24.7432
29.2213
32.7494
34.8902
35.4482
34.5686
32.7308
30.585
28.6888
30.266
29.1158
28.2039
27.2473
26.0571
24.521
22.5792
20.2092
17.42
14.2522
10.7801
7.11482
3.40477
-0.166852
-3.38944
-6.03839
-7.89515
-8.77391
-8.34893
-6.35791
-2.81184
2.12521
8.11425
14.6358
21.0145
26.4934
30.3695
32.1857
31.9235
30.0861
27.5428
25.1325
26.1229
24.9767
24.0001
22.898
21.4727
19.6053
17.229
14.3145
10.8645
6.91597
2.54499
-2.12856
-6.93772
-11.6694
-16.0712
-19.865
-22.7702
-24.5348
-24.8226
-23.1637
-19.4893
-13.903
-6.71329
1.53767
10.071
17.922
24.0784
27.723
28.5415
26.9552
24.0467
21.0346
21.3719
20.2529
19.217
17.9646
16.2927
14.0768
11.2429
7.75316
3.60227
-1.17859
-6.51432
-12.2782
-18.2866
-24.2978
-30.0177
-35.1141
-39.2403
-42.0677
-43.2781
-42.2078
-38.6699
-32.6816
-24.4797
-14.5743
-3.79022
6.73941
15.6829
21.7778
24.2575
23.294
20.116
16.4171
16.0968
15.0277
13.9432
12.5461
10.6318
8.07101
4.78246
0.718697
-4.13555
-9.75693
-16.0734
-22.9541
-30.2009
-37.5465
-44.658
-51.1519
-56.6179
-60.6539
-62.9092
-62.6785
-59.5783
-53.5223
-44.6394
-33.3449
-20.4281
-7.11036
4.99707
14.1404
18.9423
19.0993
15.8319
11.3715
10.4074
9.40889
8.29303
6.77119
4.63988
1.76561
-1.94083
-6.53751
-12.051
-18.4677
-25.7204
-33.6763
-42.1261
-50.7801
-59.2716
-67.1713
-74.0126
-79.3277
-82.6953
-83.4814
-81.1038
-75.3556
-66.2312
-53.9926
-39.298
-23.3409
-7.91281
4.7586
12.5595
14.4459
11.3713
6.09247
4.42925
3.51889
2.39668
0.787941
-1.50873
-4.63175
-8.67971
-13.7227
-19.8002
-26.9092
-34.9896
-43.9081
-53.4469
-63.2979
-73.0661
-82.2841
-90.4384
-97.0059
-101.499
-103.369
-101.926
-96.8396
-87.957
-75.3439
-59.4369
-41.2631
-22.6395
-6.16935
5.24097
9.54038
7.05237
0.926052
-1.70813
-2.51831
-3.61326
-5.2501
-7.62964
-10.8987
-15.1688
-20.5245
-27.0198
-34.664
-43.4044
-53.109
-63.5533
-74.4144
-85.2743
-95.6359
-104.95
-112.654
-118.209
-121.12
-120.706
-116.55
-108.351
-95.9638
-79.5373
-59.7951
-38.3884
-18.1142
-2.62735
4.79463
3.40096
-3.56201
-7.88576
-8.59148
-9.6164
-11.1983
-13.5432
-16.8145
-21.1434
-26.6337
-33.3565
-41.3342
-50.5219
-60.7891
-71.906
-83.5374
-95.2473
-106.516
-116.769
-125.42
-131.904
-135.723
-136.309
-133.211
-126.011
-114.367
-98.1124
-77.5605
-53.998
-30.1706
-10.3228
0.917429
1.24368
-6.4825
-14.0098
-14.6173
-15.5191
-16.9347
-19.0878
-22.174
-26.3563
-31.7654
-38.4927
-46.5742
-55.9718
-66.5554
-78.09
-90.2299
-102.525
-114.438
-125.379
-134.746
-141.968
-146.537
-147.989
-145.909
-139.839
-129.266
-113.724
-93.0647
-68.0392
-41.0675
-16.7221
-0.977152
1.84026
-6.46658
-20.0268
-20.5561
-21.2682
-22.3707
-24.1291
-26.7977
-30.5904
-35.6749
-42.1671
-50.1154
-59.4851
-70.143
-81.8483
-94.2458
-106.874
-119.183
-130.573
-140.432
-148.188
-153.339
-155.468
-154.238
-149.216
-139.781
-125.217
-104.913
-78.9784
-49.2427
-20.2741
0.744568
7.06082
-1.43885
-25.9422
-26.4289
-26.8631
-27.458
-28.5645
-30.5364
-33.6655
-38.1684
-44.1887
-51.7829
-60.9172
-71.4535
-83.137
-95.5985
-108.362
-120.869
-132.509
-142.668
-150.775
-156.336
-158.944
-158.309
-154.06
-145.555
-131.878
-112.008
-85.3642
-52.9702
-19.0239
8.3372
19.6042
11.6916
-31.8457
-32.3419
-32.3684
-32.1908
-32.3196
-33.27
-35.4428
-39.1236
-44.4763
-51.5584
-60.3232
-70.6131
-82.1543
-94.5583
-107.333
-119.908
-131.666
-141.99
-150.31
-156.132
-159.056
-158.746
-154.815
-146.722
-133.481
-113.646
-85.9737
-50.5039
-10.688
24.7364
43.2337
37.4199
-37.9617
-38.5256
-37.9304
-36.6038
-35.3404
-34.9012
-35.8312
-38.472
-43.0024
-49.4651
-57.7846
-67.7713
-79.1211
-91.4206
-104.159
-116.751
-128.572
-139.002
-147.462
-153.452
-156.559
-156.407
-152.475
-144.094
-130.233
-109.477
-79.8543
-40.1785
7.23672
53.545
82.9856
82.0971
-44.7586
-45.4139
-43.8057
-40.7688
-37.5782
-35.3331
-34.7445
-36.1779
-39.8002
-45.6119
-53.4868
-63.187
-74.3678
-86.5841
-99.3029
-111.925
-123.816
-134.346
-142.923
-149.023
-152.194
-152.029
-147.832
-138.684
-123.313
-99.8896
-66.2552
-20.4139
37.3718
98.9119
145.279
154.425
-53.2069
-53.8059
-50.4127
-44.7902
-38.9789
-34.4805
-32.14
-32.2794
-34.9972
-40.2115
-47.7185
-57.2152
-68.3069
-80.5124
-93.2742
-105.978
-117.978
-128.631
-137.324
-143.491
-146.619
-146.213
-141.507
-131.105
-113.334
-85.7985
-45.5046
10.3592
82.3974
165.26
237.816
265.981
-65.4116
-65.1905
-58.3976
-48.7723
-39.4462
-32.2556
-28.0166
-26.8855
-28.8045
-33.5583
-40.8378
-50.2614
-61.3782
-73.669
-86.5522
-99.398
-111.55
-122.347
-131.148
-137.333
-140.301
-139.417
-133.895
-121.714
-100.612
-67.4343
-18.0783
51.7889
144.718
256.761
369.04
431.794
-86.1954
-82.2705
-68.5542
-52.6032
-38.6688
-28.4469
-22.321
-20.0888
-21.4282
-25.9364
-33.1773
-42.6844
-53.9507
-66.4214
-79.4935
-92.5248
-104.848
-115.785
-124.662
-130.797
-133.483
-131.918
-125.107
-110.617
-85.2642
-44.9784
15.7169
103.219
223.273
376.562
546.553
670.887
-127.054
-108.988
-80.7022
-54.9649
-35.4737
-22.2308
-14.5376
-11.6304
-12.791
-17.3878
-24.8516
-34.6377
-46.1933
-58.9378
-72.2557
-85.4982
-97.9917
-109.045
-117.95
-123.959
-126.247
-123.812
-115.343
-97.9937
-67.7021
-19.4038
53.9126
161.29
313.449
520.507
778.292
1005.88
-214.45
-144.729
-88.291
-49.9012
-25.3347
-10.5086
-2.72858
-0.31244
-2.15429
-7.45795
-15.5834
-25.9563
-38.0142
-51.1776
-64.8371
-78.3518
-91.0519
-102.24
-111.18
-117.066
-118.955
-115.641
-105.458
-85.0962
-50.0928
5.4797
90.0137
215.397
399.217
669.785
1068.76
1548.98
-431.178
-155.789
-58.7251
-18.2354
1.69527
11.8248
15.8787
15.4613
11.4579
4.48221
-4.95489
-16.3688
-29.2618
-43.1027
-57.3196
-71.3001
-84.3939
-95.9107
-105.106
-111.142
-113.004
-109.349
-98.2023
-76.2456
-38.9396
20.0145
109.654
243.603
445.094
763.554
1332.52
2501.2
VECTORS velocity double
8.32877e-05 -8.32878e-05 0
0.00017011 -3.53411e-06 0
3.6231e-05 0.000137413 0
-0.000367741 0.00026656 0
-0.00100023 0.000365931 0
-0.0018048 0.000438632 0
-0.00273562 0.000492197 0
-0.00375969 0.000531874 0
-0.00485053 0.000558964 0
-0.0059809 0.000571405 0
-0.00711737 0.000565066 0
-0.0082175 0.000535068 0
-0.00922948 0.000476907 0
-0.0100938 0.00038741 0
-0.0107468 0.000265561 0
-0.0111256 0.000113231 0
-0.0111744 -6.43484e-05 0
-0.0108515 -0.000258592 0
-0.0101375 -0.000455407 0
-0.00904516 -0.000636934 0
-0.00762482 -0.000783407 0
-0.00596563 -0.000875783 0
-0.00419085 -0.000898997 0
-0.0024465 -0.000845355 0
-0.000883905 -0.000717243 0
0.000361664 -0.000528327 0
0.00119281 -0.000302818 0
0.0015669 -7.12764e-05 0
0.00150708 0.0001311 0
0.00111062 0.000265361 0
0.000560828 0.00028443 0
0.000138199 0.000138199 0
-6.78237e-09 -0.000166569 0
-0.000248439 0.000241358 0
-0.0010559 0.00083386 0
-0.00245861 0.00137679 0
-0.00437557 0.00180515 0
-0.00669654 0.00212495 0
-0.00931922 0.00235939 0
-0.0121553 0.00252486 0
-0.0151227 0.00262414 0
-0.0181342 0.00264817 0
-0.0210903 0.00258083 0
-0.023875 0.00240414 0
-0.0263579 0.00210272 0
-0.0283995 0.00166749 0
-0.0298598 0.00109877 0
-0.0306097 0.00040867 0
-0.0305432 -0.000377332 0
-0.0295925 -0.00121935 0
-0.0277414 -0.00205974 0
-0.0250383 -0.00282798 0
-0.0216038 -0.00344724 0
-0.0176311 -0.00384384 0
-0.0133781 -0.00395873 0
-0.00914817 -0.00375988 0
-0.00526041 -0.00325307 0
-0.00201047 -0.002488 0
0.000372654 -0.00155742 0
0.00176947 -0.000587588 0
0.00220132 0.00027539 0
0.00184637 0.000872477 0
0.00104321 0.00103026 0
0.000290904 0.000567301 0
-0.000181226 1.46637e-05 0
-0.00100616 0.00113349 0
-0.00274586 0.00248889 0
-0.00532567 0.00370428 0
-0.00860167 0.00467062 0
-0.0124189 0.00539771 0
-0.0166344 0.00592474 0
-0.0211164 0.00627762 0
-0.0257345 0.00645682 0
-0.0303486 0.0064412 0
-0.0348026 0.00619786 0
-0.0389235 0.00569272 0
-0.0425261 0.00489968 0
-0.0454219 0.00380789 0
-0.0474306 0.00242738 0
-0.0483938 0.000793187 0
-0.0481899 -0.00103218 0
-0.0467487 -0.00295658 0
-0.0440645 -0.00485774 0
-0.0402082 -0.00658938 0
-0.035335 -0.00799352 0
-0.0296876 -0.00891765 0
-0.0235891 -0.00923643 0
-0.0174253 -0.00887586 0
-0.0116137 -0.00783647 0
-0.00655839 -0.00620987 0
-0.00259458 -0.00418249 0
6.93946e-05 -0.00202331 0
0.0014041 -5.54395e-05 0
0.00159095 0.0013714 0
0.00102397 0.00190147 0
0.000307083 0.00116529 0
-0.000400679 0.000596568 0
-0.00191477 0.0028906 0
-0.00473168 0.00528838 0
-0.00860345 0.00735637 0
-0.0132935 0.00898462 0
-0.0185961 0.0102036 0
-0.0243326 0.0110708 0
-0.0303373 0.0116182 0
-0.0364423 0.0118392 0
-0.0424665 0.0116972 0
-0.0482126 0.0111419 0
-0.0534686 0.0101256 0
-0.0580158 0.00861672 0
-0.0616394 0.00661023 0
-0.0641407 0.00413497 0
-0.0653504 0.00125856 0
-0.065142 -0.00190983 0
-0.063443 -0.00521921 0
-0.060245 -0.00847731 0
-0.0556158 -0.0114553 0
-0.049712 -0.0139045 0
-0.0427855 -0.0155806 0
-0.0351828 -0.0162746 0
-0.0273339 -0.0158504 0
-0.0197247 -0.0142829 0
-0.0128517 -0.0116918 0
-0.00715904 -0.00835709 0
-0.00296351 -0.0047082 0
-0.000384831 -0.00128393 0
0.000704529 0.00132369 0
0.000698438 0.00252226 0
0.00024373 0.0017161 0
-0.000634933 0.00163218 0
-0.00288486 0.00561901 0
-0.00684094 0.00933297 0
-0.0120502 0.0123928 0
-0.0181651 0.0147532 0
-0.0249232 0.0164957 0
-0.0321134 0.0177053 0
-0.039544 0.0184191 0
-0.047021 0.0186203 0
-0.0543368 0.0182561 0
-0.0612683 0.0172605 0
-0.0675816 0.0155763 0
-0.0730407 0.0131724 0
-0.0774182 0.0100556 0
-0.0805063 0.00627898 0
-0.0821284 0.00194631 0
-0.0821488 -0.00278556 0
-0.0804797 -0.00771155 0
-0.0770887 -0.012574 0
-0.0720148 -0.0170617 0
-0.065386 -0.0208306 0
-0.0574341 -0.0235329 0
-0.0485021 -0.0248569 0
-0.039042 -0.0245771 0
-0.0295959 -0.0226115 0
-0.020754 -0.0190779 0
-0.0130864 -0.0143312 0
-0.00705176 -0.00896427 0
-0.00290072 -0.00375759 0
-0.000601354 0.00040862 0
0.000195828 0.00264623 0
0.000141416 0.00210125 0
-0.000871959 0.00313907 0
-0.0038633 0.00935338 0
-0.00895817 0.0146495 0
-0.0154887 0.018816 0
-0.0229916 0.0219477 0
-0.0311478 0.0242154 0
-0.0397177 0.0257457 0
-0.0484922 0.0265837 0
-0.0572623 0.0267028 0
-0.0658071 0.0260343 0
-0.073892 0.0244987 0
-0.0812739 0.0220333 0
-0.0877096 0.0186103 0
-0.0929649 0.0142504 0
-0.0968233 0.00903067 0
-0.0990946 0.00308801 0
-0.0996224 -0.00337905 0
-0.0982878 -0.0101218 0
-0.0950154 -0.0168271 0
-0.0897929 -0.023105 0
-0.0826971 -0.028512 0
-0.0739158 -0.0325848 0
-0.0637661 -0.0348868 0
-0.0527036 -0.0350698 0
-0.0413159 -0.0329527 0
-0.0302896 -0.028605 0
-0.0203418 -0.0224194 0
-0.0121136 -0.015139 0
-0.00603947 -0.00780808 0
-0.00223229 -0.00164744 0
-0.000423996 0.00209681 0
1.92091e-05 0.00226187 0
-0.00110196 0.005113 0
-0.00480734 0.0140762 0
-0.0109899 0.0212041 0
-0.018773 0.0265751 0
-0.0275832 0.0305017 0
-0.0370502 0.0332845 0
-0.0469126 0.0351089 0
-0.0569516 0.036034 0
-0.066954 0.0360251 0
-0.0766965 0.0349993 0
-0.0859436 0.0328657 0
-0.0944515 0.0295562 0
-0.101975 0.0250462 0
-0.108272 0.0193671 0
-0.113113 0.0126139 0
-0.116286 0.00494874 0
-0.1176 -0.00339809 0
-0.116893 -0.0121439 0
-0.114036 -0.0209346 0
-0.10895 -0.0293063 0
-0.101642 -0.0367144 0
-0.092236 -0.0425695 0
-0.0810004 -0.0462874 0
-0.0683707 -0.0473614 0
-0.0549608 -0.0454588 0
-0.0415464 -0.0405395 0
-0.0290059 -0.0329732 0
-0.018203 -0.0236164 0
-0.0098198 -0.013788 0
-0.00418222 -0.00511228 0
-0.00115055 0.0007217 0
-0.000118927 0.00216215 0
-0.00131472 0.00752968 0
-0.00567558 0.0197257 0
-0.0128498 0.0289113 0
-0.0217706 0.0355718 0
-0.0317672 0.0403119 0
-0.0424269 0.0436011 0
-0.0534736 0.0457015 0
-0.0646867 0.0466936 0
-0.0758569 0.046538 0
-0.0867669 0.0451389 0
-0.0971875 0.0423938 0
-0.106879 0.0382275 0
-0.115595 0.0326135 0
-0.123084 0.0255866 0
-0.129099 0.0172504 0
-0.133395 0.00778125 0
-0.135742 -0.00257 0
-0.135929 -0.0134915 0
-0.133767 -0.024606 0
-0.129105 -0.0353837 0
-0.121868 -0.0451813 0
-0.112099 -0.0532776 0
-0.0999904 -0.0589236 0
-0.0859264 -0.0614188 0
-0.0705144 -0.0602233 0
-0.0545944 -0.0551094 0
-0.0392015 -0.0463367 0
-0.0254533 -0.0348041 0
-0.0143479 -0.0220888 0
-0.00651322 -0.0102838 0
-0.0020073 -0.00164442 0
-0.000276943 0.00176628 0
-0.00149927 0.0103437 0
-0.0064263 0.0261996 0
-0.0144549 0.0376402 0
-0.0243566 0.0456655 0
-0.0353805 0.0512388 0
-0.0470811 0.0550343 0
-0.0591742 0.0574081 0
-0.0714437 0.0584697 0
-0.0836899 0.0581783 0
-0.0957076 0.0564263 0
-0.107278 0.0530975 0
-0.118168 0.0481051 0
-0.12813 0.0414132 0
-0.136903 0.0330501 0
-0.144218 0.0231166 0
-0.149799 0.0117921 0
-0.153371 -0.000662124 0
-0.154676 -0.0139073 0
-0.15347 -0.0275586 0
-0.149529 -0.0410347 0
-0.142692 -0.0536032 0
-0.132902 -0.0644147 0
-0.12025 -0.0725471 0
-0.10503 -0.0770791 0
-0.0877964 -0.077209 0
-0.0694056 -0.0724345 0
-0.0510197 -0.0627902 0
-0.0340172 -0.0491012 0
-0.0197748 -0.0331395 0
-0.00932888 -0.0175137 0
-0.00304229 -0.00520697 0
-0.000466579 0.00102276 0
-0.00164455 0.0134875 0
-0.00701867 0.033357 0
-0.0157258 0.0472186 0
-0.0264131 0.0566762 0
-0.038268 0.0631068 0
-0.0508206 0.0674195 0
-0.063784 0.0700796 0
-0.07695 0.0712336 0
-0.0901326 0.0708431 0
-0.103142 0.0687882 0
-0.115772 0.0649363 0
-0.127798 0.0591828 0
-0.138975 0.0514738 0
-0.149033 0.041821 0
-0.157684 0.0303117 0
-0.164624 0.0171177 0
-0.169542 0.00250285 0
-0.172137 -0.0131728 0
-0.172115 -0.0295212 0
-0.169194 -0.045934 0
-0.163126 -0.0616086 0
-0.153743 -0.0755826 0
-0.141007 -0.086767 0
-0.125079 -0.0940067 0
-0.106401 -0.0961933 0
-0.0857806 -0.0924618 0
-0.0644441 -0.0824852 0
-0.0440039 -0.0668489 0
-0.0262532 -0.0473849 0
-0.012753 -0.0272144 0
-0.00431767 -0.0102282 0
-0.000702779 -0.000146597 0
-0.00174031 0.0168723 0
-0.00741553 0.0410214 0
-0.0165913 0.057437 0
-0.0278338 0.0683876 0
-0.0402872 0.0757036 0
-0.0534644 0.0805525 0
-0.0670774 0.083523 0
-0.0809276 0.0848063 0
-0.0948441 0.0843694 0
-0.108653 0.0820804 0
-0.122166 0.077787 0
-0.135168 0.071361 0
-0.14742 0.0627234 0
-0.15865 0.0518601 0
-0.168563 0.0388361 0
-0.176836 0.0238067 0
-0.183134 0.00703037 0
-0.187118 -0.0111227 0
-0.188463 -0.0302473 0
-0.186847 -0.0497454 0
-0.181938 -0.0687733 0
-0.173455 -0.0862841 0
-0.161211 -0.101046 0
-0.145192 -0.111675 0
-0.125661 -0.116733 0
-0.103292 -0.114912 0
-0.0792856 -0.105378 0
-0.0554169 -0.088265 0
-0.0338934 -0.065243 0
-0.0169038 -0.039846 0
-0.00589991 -0.0170358 0
-0.00100224 -0.00185161 0
-0.00177823 0.0203909 0
-0.00758679 0.0489867 0
-0.0169933 0.068054 0
-0.028531 0.0805508 0
-0.0413183 0.0887812 0
-0.0548548 0.0941885 0
-0.0688512 0.0974965 0
-0.0831173 0.0989491 0
-0.0974968 0.0985225 0
-0.111834 0.0960736 0
-0.125956 0.0914286 0
-0.139666 0.084432 0
-0.152737 0.0749741 0
-0.164907 0.0630099 0
-0.175883 0.0485753 0
-0.185345 0.0318027 0
-0.192949 0.0129361 0
-0.198337 -0.00765699 0
-0.20117 -0.0295336 0
-0.2011 -0.0521465 0
-0.197733 -0.0746474 0
-0.190677 -0.0959482 0
-0.179586 -0.114717 0
-0.164235 -0.129375 0
-0.144645 -0.138153 0
-0.121261 -0.139246 0
-0.0951398 -0.131173 0
-0.0681059 -0.113373 0
-0.042722 -0.0870422 0
-0.0218716 -0.0558867 0
-0.00785162 -0.026019 0
-0.00138192 -0.00423577 0
-0.00175306 0.0239222 0
-0.00751309 0.057024 0
-0.0168936 0.0788038 0
-0.0284447 0.0928898 0
-0.0412758 0.102061 0
-0.0548745 0.108044 0
-0.0689475 0.11171 0
-0.0833099 0.113364 0
-0.0978181 0.112995 0
-0.112334 0.110453 0
-0.126704 0.105542 0
-0.140754 0.0980785 0
-0.154277 0.0879206 0
-0.167034 0.0749904 0
-0.178755 0.0592923 0
-0.189139 0.0409312 0
-0.197858 0.0201302 0
-0.204565 -0.00275564 0
-0.20892 -0.0272464 0
-0.210562 -0.0528621 0
-0.209067 -0.0787941 0
-0.203953 -0.103971 0
-0.194713 -0.127025 0
-0.180888 -0.146244 0
-0.162201 -0.15956 0
-0.138771 -0.164653 0
-0.111376 -0.159281 0
-0.0817381 -0.141937 0
-0.0526519 -0.112949 0
-0.027699 -0.0757836 0
-0.0102255 -0.0376155 0
-0.00185838 -0.00747607 0
-0.00166358 0.0273388 0
-0.00718907 0.0648929 0
-0.0162794 0.0894057 0
-0.0275514 0.105111 0
-0.0401209 0.11524 0
-0.0534634 0.121806 0
-0.0672771 0.125835 0
-0.0813777 0.127702 0
-0.0956315 0.127419 0
-0.109917 0.124831 0
-0.124105 0.119723 0
-0.138046 0.111888 0
-0.151565 0.101153 0
-0.164461 0.0874106 0
-0.176502 0.0706344 0
-0.18743 0.0509014 0
-0.196961 0.0284096 0
-0.204784 0.0034951 0
-0.210573 -0.0233536 0
-0.213983 -0.0517024 0
-0.214596 -0.0808361 0
-0.21187 -0.109769 0
-0.205154 -0.137183 0
-0.193748 -0.161318 0
-0.177035 -0.179885 0
-0.154719 -0.190075 0
-0.127162 -0.18881 0
-0.0957969 -0.173411 0
-0.0634656 -0.142892 0
-0.034367 -0.0998916 0
-0.0130588 -0.0522891 0
-0.00244696 -0.0117814 0
-0.00151333 0.0305157 0
-0.00662592 0.0723541 0
-0.0151684 0.0995773 0
-0.0258718 0.116915 0
-0.0378723 0.128006 0
-0.0506331 0.135144 0
-0.0638384 0.139517 0
-0.0772994 0.141582 0
-0.0908893 0.141383 0
-0.104503 0.138767 0
-0.118036 0.133508 0
-0.131371 0.125379 0
-0.144373 0.114184 0
-0.15689 0.0997913 0
-0.168746 0.0821511 0
-0.179748 0.0613158 0
-0.189679 0.0374572 0
-0.198292 0.0108828 0
-0.205297 -0.0179472 0
-0.210399 -0.0485966 0
-0.213225 -0.0805034 0
-0.213212 -0.112841 0
-0.2096 -0.144438 0
-0.201463 -0.173606 0
-0.187824 -0.197948 0
-0.167905 -0.214247 0
-0.141518 -0.218582 0
-0.109604 -0.206918 0
-0.0748145 -0.176506 0
-0.0417862 -0.128405 0
-0.0163697 -0.0705006 0
-0.00316157 -0.0173899 0
-0.00131089 0.0333399 0
-0.00585275 0.0791843 0
-0.013612 0.109049 0
-0.023475 0.12801 0
-0.0346127 0.140049 0
-0.0464757 0.147724 0
-0.0587289 0.152395 0
-0.0711747 0.154611 0
-0.0836904 0.15446 0
-0.0961872 0.151801 0
-0.108587 0.146407 0
-0.120809 0.138037 0
-0.132764 0.126484 0
-0.144357 0.1116 0
-0.15548 0.0933224 0
-0.166021 0.0716872 0
-0.175848 0.0468446 0
-0.184808 0.0190675 0
-0.192696 -0.0112389 0
-0.199285 -0.0436131 0
-0.204271 -0.077676 0
-0.207123 -0.112829 0
-0.207029 -0.148156 0
-0.202879 -0.182177 0
-0.193348 -0.212546 0
-0.177136 -0.23578 0
-0.153391 -0.247182 0
-0.122365 -0.241258 0
-0.0862344 -0.213086 0
-0.0497967 -0.161291 0
-0.0201558 -0.0926723 0
-0.00401536 -0.0245669 0
-0.00106971 0.0357205 0
-0.00491656 0.0851924 0
-0.0116958 0.117579 0
-0.0204812 0.138128 0
-0.0304912 0.151079 0
-0.0411655 0.159232 0
-0.052147 0.164122 0
-0.0632255 0.166408 0
-0.074281 0.166234 0
-0.0852417 0.163485 0
-0.0960582 0.157939 0
-0.10669 0.149357 0
-0.117098 0.137527 0
-0.127247 0.122298 0
-0.137103 0.103605 0
-0.146639 0.0814807 0
-0.155826 0.0560654 0
-0.164623 0.0276037 0
-0.172953 -0.00355696 0
-0.180685 -0.0369736 0
-0.187596 -0.0724192 0
-0.193252 -0.109578 0
-0.196857 -0.147895 0
-0.197187 -0.186257 0
-0.192621 -0.222562 0
-0.181339 -0.253259 0
-0.16175 -0.273036 0
-0.13323 -0.274949 0
-0.097175 -0.25158 0
-0.0581756 -0.198233 0
-0.0243974 -0.119149 0
-0.005023 -0.0336052 0
-0.000807589 0.0375978 0
-0.00388116 0.0902355 0
-0.00953911 0.124973 0
-0.0170598 0.14704 0
-0.0257212 0.160838 0
-0.0349555 0.169381 0
-0.044384 0.174383 0
-0.0537837 0.176625 0
-0.0630378 0.176326 0
-0.0720937 0.173409 0
-0.0809346 0.167672 0
-0.0895627 0.158884 0
-0.0979929 0.146839 0
-0.106251 0.131394 0
-0.114378 0.112492 0
-0.122429 0.0901799 0
-0.130478 0.0646017 0
-0.138605 0.035992 0
-0.146872 0.00465221 0
-0.155268 -0.0290553 0
-0.163693 -0.0650012 0
-0.171853 -0.10318 0
-0.179053 -0.143489 0
-0.18405 -0.185336 0
-0.185021 -0.227079 0
-0.179678 -0.265367 0
-0.165672 -0.294524 0
-0.141355 -0.306298 0
-0.107037 -0.290605 0
-0.0666521 -0.238594 0
-0.0290645 -0.150154 0
-0.00620518 -0.0448334 0
-0.000545943 0.0389514 0
-0.0028254 0.094235 0
-0.00729216 0.131098 0
-0.0134271 0.15457 0
-0.0205749 0.169117 0
-0.028168 0.17793 0
-0.0358103 0.182905 0
-0.0432699 0.184962 0
-0.0504378 0.184411 0
-0.0572853 0.181228 0
-0.0638327 0.175242 0
-0.07013 0.16624 0
-0.0762478 0.154031 0
-0.0822748 0.138487 0
-0.0883199 0.119571 0
-0.0945165 0.0973492 0
-0.101027 0.0719915 0
-0.108039 0.0437417 0
-0.115743 0.0128741 0
-0.124272 -0.0203533 0
-0.133673 -0.0558772 0
-0.143825 -0.093991 0
-0.15421 -0.135095 0
-0.163691 -0.179251 0
-0.170378 -0.225506 0
-0.171643 -0.271017 0
-0.164422 -0.3101 0
-0.145965 -0.333496 0
-0.115208 -0.328482 0
-0.0749247 -0.281384 0
-0.0341291 -0.185747 0
-0.00759525 -0.0586338 0
-0.000309217 0.0398065 0
-0.0018419 0.097192 0
-0.00513491 0.135901 0
-0.00984283 0.16061 0
-0.0153777 0.17576 0
-0.0211826 0.184685 0
-0.0268558 0.189465 0
-0.0321664 0.191173 0
-0.0370217 0.190224 0
-0.0414247 0.186665 0
-0.0454396 0.180367 0
-0.0491691 0.171142 0
-0.0527429 0.158821 0
-0.0563132 0.143295 0
-0.0600539 0.124549 0
-0.0641648 0.102678 0
-0.0688766 0.0778843 0
-0.074455 0.0504392 0
-0.0811918 0.0206181 0
-0.089362 -0.0113989 0
-0.0991617 -0.0456311 0
-0.110642 -0.0826045 0
-0.123524 -0.123215 0
-0.13691 -0.168263 0
-0.149028 -0.217688 0
-0.157104 -0.269496 0
-0.157506 -0.31844 0
-0.146386 -0.354734 0
-0.121082 -0.363306 0
-0.08267 -0.325256 0
-0.0395736 -0.225767 0
-0.00924599 -0.0754751 0
-0.000125086 0.0402408 0
-0.0010378 0.0992031 0
-0.00327775 0.139423 0
-0.00660942 0.165128 0
-0.0105023 0.18067 0
-0.014425 0.189502 0
-0.0179906 0.193886 0
-0.0209876 0.195059 0
-0.0233542 0.193559 0
-0.0251367 0.189515 0
-0.0264509 0.182846 0
-0.0274577 0.173399 0
-0.0283492 0.161029 0
-0.0293422 0.145649 0
-0.0306743 0.127267 0
-0.0326045 0.106002 0
-0.0354162 0.0820847 0
-0.0394221 0.055823 0
-0.0449676 0.0275166 0
-0.0524187 -0.00267603 0
-0.0620871 -0.0348859 0
-0.0741772 -0.0697796 0
-0.0886711 -0.108664 0
-0.105023 -0.153076 0
-0.12179 -0.20399 0
-0.136321 -0.260588 0
-0.144679 -0.318587 0
-0.142053 -0.368332 0
-0.124056 -0.393008 0
-0.0895316 -0.36849 0
-0.0453889 -0.269772 0
-0.0112327 -0.0959538 0
-2.64076e-05 0.0403923 0
-0.000540445 0.100478 0
-0.00196829 0.141816 0
-0.00407533 0.168174 0
-0.00636554 0.183807 0
-0.00835473 0.192277 0
-0.00970399 0.196026 0
-0.0102503 0.196462 0
-0.00998533 0.194258 0
-0.00901416 0.189628 0
-0.00751416 0.182547 0
-0.00570887 0.172899 0
-0.00385544 0.160567 0
-0.00223609 0.145485 0
-0.00115141 0.127679 0
-0.000916619 0.107285 0
-0.00185869 0.0845548 0
-0.00431517 0.0598152 0
-0.00863709 0.0333918 0
-0.0151951 0.00545794 0
-0.024349 -0.0241976 0
-0.0364033 -0.0563235 0
-0.0515602 -0.0924691 0
-0.0696837 -0.134796 0
-0.0898603 -0.185326 0
-0.10989 -0.244691 0
-0.125913 -0.310103 0
-0.132469 -0.372886 0
-0.123476 -0.415446 0
-0.0950706 -0.408982 0
-0.0515455 -0.316948 0
-0.0136468 -0.120833 0
-5.66976e-05 0.0404754 0
-0.000512164 0.101365 0
-0.00150852 0.143353 0
-0.00264551 0.169881 0
-0.0034274 0.185172 0
-0.00345221 0.192926 0
-0.00247972 0.195755 0
-0.000438403 0.195239 0
0.00259502 0.192183 0
0.00643649 0.18689 0
0.0108338 0.179388 0
0.0154906 0.169596 0
0.0200819 0.157425 0
0.0242627 0.142827 0
0.0276753 0.12584 0
0.029957 0.106608 0
0.0307501 0.0853812 0
0.0297123 0.062483 0
0.0265243 0.0382339 0
0.0208867 0.0128115 0
0.0124843 -0.0139948 0
0.000984204 -0.0429719 0
-0.0139641 -0.0757156 0
-0.0325862 -0.114803 0
-0.054609 -0.163119 0
-0.078613 -0.222865 0
-0.101311 -0.293208 0
-0.117119 -0.367416 0
-0.118537 -0.428491 0
-0.0986617 -0.444218 0
-0.0579219 -0.365976 0
-0.0165725 -0.151053 0
-0.000282293 0.0408144 0
-0.00118105 0.10238 0
-0.00228704 0.14444 0
-0.00279863 0.170442 0
-0.00218784 0.184782 0
-0.000195001 0.191348 0
0.00324865 0.192916 0
0.00805463 0.19123 0
0.0140097 0.187203 0
0.0208291 0.181209 0
0.0281796 0.173321 0
0.0356957 0.16349 0
0.0429916 0.151644 0
0.0496694 0.137749 0
0.0553263 0.121848 0
0.0595664 0.104078 0
0.0620146 0.0846699 0
0.0623326 0.0639142 0
0.0602318 0.0420915 0
0.0554735 0.0193498 0
0.0478371 -0.00449442 0
0.0370848 -0.0302198 0
0.0229322 -0.0593668 0
0.00495998 -0.0945579 0
-0.0172473 -0.139134 0
-0.0432878 -0.196805 0
-0.0709699 -0.268888 0
-0.0953429 -0.351555 0
-0.10812 -0.430156 0
-0.0993147 -0.471234 0
-0.0641695 -0.414846 0
-0.0200385 -0.187664 0
-0.00081648 0.0419132 0
-0.00289601 0.10426 0
-0.00482735 0.145598 0
-0.00510296 0.170071 0
-0.003169 0.182608 0
0.000979274 0.187381 0
0.00711586 0.187303 0
0.0149101 0.184243 0
0.0239739 0.179171 0
0.0339009 0.172495 0
0.0442741 0.164312 0
0.0546677 0.15459 0
0.0646503 0.143266 0
0.0737892 0.130311 0
0.081658 0.115761 0
0.0878486 0.0997344 0
0.0919877 0.0824261 0
0.0937548 0.0640729 0
0.0928965 0.0448919 0
0.0892277 0.0249765 0
0.0826062 0.0041368 0
0.0728588 -0.0183513 0
0.0597284 -0.0439524 0
0.0428281 -0.0750997 0
0.0216478 -0.115205 0
-0.00437714 -0.168668 0
-0.0347865 -0.238933 0
-0.0661781 -0.325745 0
-0.0905798 -0.418787 0
-0.0954037 -0.486585 0
-0.069484 -0.460559 0
-0.0239316 -0.231634 0
-0.00186275 0.0445924 0
-0.00620928 0.108006 0
-0.0098304 0.147404 0
-0.0101886 0.1689 0
-0.00683546 0.178493 0
-0.000224721 0.180737 0
0.00896591 0.17862 0
0.0200749 0.174023 0
0.0325046 0.167898 0
0.0457193 0.160627 0
0.0592273 0.152299 0
0.0725612 0.142875 0
0.0852673 0.132291 0
0.0969041 0.120509 0
0.107047 0.10755 0
0.115302 0.0934999 0
0.121318 0.0785054 0
0.124806 0.0627381 0
0.125551 0.0463402 0
0.12341 0.0293383 0
0.118288 0.0115185 0
0.11007 -0.00776786 0
0.0985149 -0.0298503 0
0.0832106 -0.0569971 0
0.0635447 -0.0924616 0
0.0386706 -0.140513 0
0.00782281 -0.205832 0
-0.0281876 -0.291445 0
-0.0635045 -0.393369 0
-0.0842912 -0.486393 0
-0.0722386 -0.498724 0
-0.0278473 -0.283413 0
-0.00378009 0.0502353 0
-0.0119538 0.114884 0
-0.0181077 0.150302 0
-0.0185174 0.16677 0
-0.0132455 0.171997 0
-0.00353356 0.17091 0
0.00931646 0.166406 0
0.0242403 0.160203 0
0.0404163 0.153111 0
0.0571979 0.145416 0
0.0740468 0.137152 0
0.0904846 0.12825 0
0.106067 0.118628 0
0.120373 0.108229 0
0.133011 0.0970485 0
0.143623 0.0851343 0
0.151901 0.0725774 0
0.157597 0.0594815 0
0.160535 0.0459148 0
0.160599 0.0318406 0
0.157718 0.0170194 0
0.1518 0.000867353 0
0.142605 -0.0177352 0
0.129673 -0.0408764 0
0.112256 -0.0714995 0
0.089197 -0.113542 0
0.0590357 -0.171793 0
0.0207681 -0.251205 0
-0.0235 -0.354024 0
-0.061847 -0.466604 0
-0.0693972 -0.523015 0
-0.0308251 -0.342085 0
-0.00713743 0.0611528 0
-0.0211363 0.126139 0
-0.0300399 0.154104 0
-0.0294793 0.162816 0
-0.0209186 0.162118 0
-0.00683592 0.156994 0
0.0107094 0.149926 0
0.0302482 0.142221 0
0.0507788 0.134388 0
0.0716027 0.126535 0
0.0921873 0.1186 0
0.112087 0.110465 0
0.130904 0.102015 0
0.148271 0.0931686 0
0.163853 0.0838892 0
0.177351 0.0741838 0
0.188511 0.0640902 0
0.197132 0.0536505 0
0.203069 0.042872 0
0.206217 0.0316706 0
0.206492 0.019796 0
0.203773 0.00672793 0
0.197837 -0.00846426 0
0.188171 -0.0275499 0
0.173819 -0.0530577 0
0.153283 -0.0883887 0
0.124458 -0.137959 0
0.0849932 -0.207307 0
0.0339583 -0.302618 0
-0.0219048 -0.423799 0
-0.055553 -0.524621 0
-0.0308467 -0.403757 0
-0.0125451 0.0808354 0
-0.0338955 0.141805 0
-0.0433182 0.156764 0
-0.0383397 0.154618 0
-0.0233501 0.146767 0
-0.00245456 0.137368 0
0.0215798 0.127973 0
0.0470439 0.119171 0
0.0729261 0.111025 0
0.0985907 0.103409 0
0.12359 0.0961421 0
0.147566 0.0890462 0
0.170211 0.0819728 0
0.19124 0.0748139 0
0.210398 0.0675037 0
0.227457 0.0600129 0
0.242222 0.052336 0
0.254536 0.044469 0
0.264274 0.036379 0
0.271328 0.0279607 0
0.275582 0.0189782 0
0.276861 0.00898522 0
0.274871 -0.00279463 0
0.269019 -0.0177015 0
0.258176 -0.0377127 0
0.240488 -0.0655092 0
0.213245 -0.10477 0
0.17298 -0.160767 0
0.116364 -0.241507 0
0.0443071 -0.35699 0
-0.0213062 -0.492169 0
-0.0238091 -0.458413 0
-0.0191497 0.11253 0