# vtk DataFile Version 2.0
Lid-driven cavity
ASCII
DATASET STRUCTURED_POINTS
DIMENSIONS 32 32 1
ORIGIN 0.015625 0.015625 0
SPACING 0.03125 0.03125 1
POINT_DATA 1024
SCALARS pressure double 1
LOOKUP_TABLE default
58.3304
58.0848
57.6383
57.1291
56.6423
56.2219
55.8905
55.6644
55.5623
55.6069
55.8237
56.2371
56.865
57.7136
58.7722
60.0093
61.3702
62.7797
64.139
65.3358
66.2588
66.8144
66.9443
66.6388
65.9432
64.9543
63.8057
62.6493
61.6357
60.8939
60.5146
60.5053
58.576
58.3192
57.9445
57.5325
57.1364
56.7876
56.5055
56.3066
56.2095
56.2361
56.4106
56.7557
57.2888
58.0175
58.9339
60.0118
61.2033
62.4433
63.6423
64.6984
65.5105
65.9941
66.0979
65.8164
65.1949
64.3246
63.3278
62.3346
61.4695
60.8329
60.4958
60.4957
59.0396
58.6715
58.2828
57.9053
57.5577
57.2504
56.9917
56.7934
56.6721
56.6499
56.7522
57.0045
57.4282
58.0364
58.8282
59.7846
60.8652
62.0101
63.1332
64.1339
64.9106
65.3766
65.4781
65.2079
64.6104
63.7767
62.8276
61.8899
61.0742
60.4683
60.1344
60.1216
59.5661
59.0375
58.5861
58.1997
57.8626
57.5619
57.2924
57.0585
56.8752
56.7654
56.7583
56.8855
57.1764
57.6533
58.3254
59.1833
60.1947
61.3009
62.4163
63.4365
64.2516
64.7646
64.9103
64.672
64.0894
63.2533
62.2884
61.3264
60.4809
59.8348
59.4477
59.3662
60.0073
59.2993
58.761
58.3361
57.9754
57.6432
57.3209
57.0065
56.7132
56.4671
56.3032
56.2621
56.3844
56.7047
57.2453
58.0091
58.974
60.0818
61.2477
62.3607
63.2981
63.9442
64.2131
64.0683
63.5352
62.6998
61.6911
60.6522
59.71
58.9571
58.4563
58.2539
60.2183
59.329
58.6936
58.2091
57.7931
57.3888
56.9657
56.5169
56.0559
55.613
55.2316
54.9637
54.8637
54.9819
55.3564
56.006
56.9229
58.0545
59.3198
60.6017
61.7611
62.6564
63.1691
63.2286
62.8317
62.0475
61.0046
59.8613
58.7692
57.8462
57.1717
56.8019
60.0541
58.9916
58.256
57.6949
57.1924
56.6725
56.0949
55.4497
54.7519
54.0381
53.3616
52.7878
52.3878
52.2306
52.3744
52.8579
53.6925
54.8448
56.244
57.7708
59.2683
60.5623
61.4884
61.9232
61.8131
61.1906
60.1713
58.9278
57.648
56.4945
55.5848
55.0024
59.3703
58.1492
57.3136
56.6595
56.038
55.3555
54.5637
53.6508
52.6349
51.5596
50.4893
49.5048
48.6964
48.1556
47.9658
48.1914
48.8691
50.0014
51.5436
53.3811
55.3421
57.2146
58.7751
59.8252
60.2316
59.96
59.0891
57.7965
56.3158
54.8788
53.6715
52.822
58.0284
56.6681
55.7337
54.9687
54.193
53.2965
52.224
50.9627
49.5336
47.9876
46.4009
44.8712
43.5105
42.4375
41.7666
41.5957
41.9941
43.0149
44.6683
46.8564
49.3995
52.0481
54.5086
56.4844
57.728
58.0959
57.5904
56.3703
54.7161
52.9563
51.3829
50.2028
55.9039
54.4284
53.3957
52.4998
51.531
50.3644
48.9383
47.238
45.2871
43.1429
40.8932
38.6534
36.5604
34.7646
33.4188
32.6633
32.6092
33.3657
35.0408
37.5717
40.7851
44.4005
48.0508
51.3219
53.8153
55.2261
55.4223
54.4971
52.7626
50.6671
48.6595
47.0709
52.8967
51.3335
50.2026
49.1533
47.9497
46.4533
44.5954
42.3586
39.7667
36.882
33.8031
30.6635
27.6271
24.8813
22.6247
21.051
20.3285
20.6017
22.1375
24.934
28.8451
33.5765
38.6942
43.6581
47.8873
50.8592
52.2317
51.957
50.333
47.9371
45.433
43.3437
48.9418
47.3213
46.092
44.8659
43.3849
41.4983
39.1296
36.2566
32.9012
29.128
25.0446
20.8023
16.5939
12.6475
9.21482
6.55278
4.89897
4.44312
5.59746
8.49601
13.0431
18.9558
25.7555
32.7848
39.2649
44.4048
47.5663
48.4546
47.2654
44.6805
41.6365
38.9404
44.0179
42.373
41.0459
39.6212
37.8234
35.4906
32.5382
28.9366
24.7029
19.9013
14.6458
9.10431
3.4989
-1.89868
-6.77851
-10.8127
-13.6847
-15.1283
-14.6602
-11.9096
-6.89729
0.139261
8.71454
18.0861
27.288
35.2323
40.9023
43.6262
43.3585
40.8067
37.2165
33.799
38.1537
36.5186
35.0975
33.4578
31.3123
28.4896
24.896
20.4928
15.2891
9.34525
2.77923
-4.22662
-11.4219
-18.4906
-25.0618
-30.7312
-35.0943
-37.7927
-38.331
-36.0448
-30.8477
-22.8933
-12.6223
-0.804768
11.4525
22.7741
31.708
37.0693
38.3839
36.2311
32.1509
27.8948
31.4293
29.8387
28.3323
26.4718
23.9633
20.6282
16.3632
11.1184
4.89248
-2.26095
-10.2233
-18.8004
-27.7158
-36.6108
-45.0542
-52.5639
-58.6427
-62.8253
-64.6536
-63.1799
-58.1674
-49.6502
-37.9675
-23.8389
-8.42687
6.6665
19.5474
28.4047
32.1173
30.8963
26.4729
21.2674
23.9722
22.46
20.8848
18.8132
15.95
12.1109
7.18292
1.10354
-6.14116
-14.5071
-23.8778
-34.0506
-44.7263
-55.5072
-65.9057
-75.3666
-83.3039
-89.1508
-92.4191
-92.0917
-87.6757
-79.0673
-66.4543
-50.4186
-32.0613
-13.0933
4.21495
17.3718
24.3942
24.8067
20.3055
14.0564
15.9479
14.5452
12.9274
10.6755
7.49678
3.20243
-2.33087
-9.17948
-17.3719
-26.8757
-37.5793
-49.2742
-61.6423
-74.2519
-86.5655
-97.9633
-107.781
-115.364
-120.132
-121.178
-117.739
-109.558
-96.6394
-79.3464
-58.5862
-36.0115
-14.1214
3.9493
15.1932
18.0824
13.908
6.54904
7.54514
6.27824
4.65545
2.27958
-1.13739
-5.79019
-11.8142
-19.3016
-28.2975
-38.7828
-50.6527
-63.6956
-77.5779
-91.839
-105.899
-119.085
-130.668
-139.918
-146.171
-148.661
-146.469
-139.192
-126.637
-108.897
-86.5602
-61.0273
-34.8044
-11.5176
4.74159
11.0352
7.74051
-0.75457
-1.04249
-2.15509
-3.73299
-6.14619
-9.68027
-14.5407
-20.8798
-28.8094
-38.3933
-49.6278
-62.4161
-76.5451
-91.6687
-107.302
-122.831
-137.538
-150.647
-161.376
-168.996
-172.843
-172.004
-165.975
-154.38
-137.024
-114.092
-86.5491
-56.638
-28.2136
-6.36811
4.26929
2.55318
-7.04784
-9.63682
-10.5877
-12.0579
-14.3876
-17.8681
-22.7274
-29.1447
-37.258
-47.154
-58.8455
-72.2442
-87.1362
-103.164
-119.823
-136.471
-152.357
-166.67
-178.597
-187.382
-192.37
-192.82
-188.185
-177.953
-161.673
-139.096
-110.613
-77.9371
-44.8049
-17.0702
-1.19327
-0.486005
-11.0773
-18.0961
-18.893
-20.1785
-22.2639
-25.4647
-30.0535
-36.2542
-44.2418
-54.1308
-65.9514
-79.6227
-94.9284
-111.501
-128.819
-146.214
-162.912
-178.078
-190.881
-200.557
-206.453
-207.985
-204.664
-195.933
-181.133
-159.621
-131.151
-96.686
-59.472
-25.7494
-3.76952
0.386631
-10.9323
-26.3362
-27.0062
-28.0115
-29.6431
-32.2747
-36.2615
-41.8996
-49.4162
-58.9593
-70.5756
-84.1864
-99.5692
-116.346
-133.978
-151.78
-168.957
-184.657
-198.038
-208.335
-214.907
-217.253
-214.991
-207.607
-194.321
-174.171
-146.299
-110.782
-70.032
-30.2194
-1.16761
7.76773
-3.74068
-34.3549
-34.9479
-35.5479
-36.4503
-38.1482
-41.1387
-45.8276
-52.5118
-61.3788
-72.4849
-85.7529
-100.95
-117.677
-135.371
-153.326
-170.728
-186.712
-200.43
-211.118
-218.148
-221.034
-219.468
-213.022
-200.905
-181.915
-154.66
-118.297
-74.1293
-27.7722
9.73927
25.3764
14.7435
-42.2665
-42.8553
-42.8688
-42.67
-42.9767
-44.5153
-47.847
-53.3681
-61.2932
-71.6793
-84.4284
-99.2794
-115.803
-133.408
-151.364
-168.839
-184.956
-198.86
-209.785
-217.101
-220.329
-219.093
-212.944
-201.232
-182.704
-155.421
-117.672
-69.4379
-15.2964
32.9804
58.3642
50.6571
-50.3678
-51.0348
-50.1654
-48.341
-46.679
-46.2563
-47.8372
-51.8979
-58.6747
-68.2024
-80.3408
-94.7813
-111.051
-128.522
-146.435
-163.939
-180.145
-194.187
-205.288
-212.801
-216.224
-215.121
-208.846
-196.571
-176.981
-148.257
-107.751
-53.793
10.5668
73.454
113.586
112.628
-59.2854
-60.0675
-57.7766
-53.5502
-49.1804
-46.2243
-45.6817
-48.0614
-53.5843
-62.2248
-73.7691
-87.8391
-103.903
-121.288
-139.203
-156.777
-173.105
-187.307
-198.582
-206.247
-209.739
-208.57
-201.838
-188.366
-166.51
-133.89
-87.6594
-25.1808
53.2864
136.751
199.733
212.43
-70.3277
-71.0285
-66.2584
-58.4293
-50.4031
-44.3069
-41.335
-41.9314
-46.2232
-54.0679
-65.1407
-78.9704
-94.954
-112.368
-130.387
-148.117
-164.639
-179.053
-190.523
-198.306
-201.746
-200.23
-192.746
-177.44
-152.124
-113.644
-58.0469
18.3828
116.369
228.777
327.191
365.688
-86.3493
-85.9343
-76.4826
-63.1203
-50.2294
-40.4125
-34.8309
-33.6976
-36.9236
-44.1779
-54.9865
-68.7672
-84.8375
-102.421
-120.658
-138.637
-155.419
-170.083
-181.75
-189.599
-192.844
-190.674
-182.065
-164.24
-134.226
-87.8368
-19.6205
76.1732
202.869
355.021
507.279
592.635
-113.922
-108.477
-89.5542
-67.5122
-48.2932
-34.3229
-26.1688
-23.5593
-26.0362
-33.0061
-43.8167
-57.7662
-74.0944
-91.9755
-110.523
-128.807
-145.877
-160.785
-172.607
-180.432
-183.326
-180.241
-169.876
-148.849
-112.932
-56.7002
27.1664
147.22
311.086
519.53
750.079
918.843
-168.744
-144.108
-105.344
-69.9463
-43.1401
-25.0472
-14.7762
-11.2853
-13.5642
-20.7021
-31.8628
-46.2364
-63.0001
-81.2944
-100.217
-118.83
-136.175
-151.287
-163.194
-170.892
-173.279
-169.033
-156.412
-131.468
-88.7731
-21.5574
79.5929
226.835
434.561
716.313
1066.27
1374.65
-286.926
-192.211
-115.198
-62.5716
-28.8381
-8.58843
1.79178
4.59873
1.37444
-6.74412
-18.823
-34.0121
-51.4759
-70.3575
-89.7648
-108.772
-126.428
-141.758
-153.752
-161.321
-163.202
-157.786
-142.839
-113.804
-64.7146
12.3842
128.791
300.537
551.362
919.543
1461.51
2113.31
-580.764
-207.132
-74.9932
-19.4853
7.99063
21.8967
27.2459
26.2281
20.0862
9.71026
-4.1406
-20.7383
-39.3354
-59.1414
-79.3159
-98.9726
-117.186
-132.991
-145.365
-153.172
-155.049
-149.196
-132.945
-101.784
-49.616
32.0277
155.323
338.658
613.446
1046.65
1819.4
3405.65
VECTORS velocity double
8.33451e-05 -8.33452e-05 0
0.000170302 -3.61181e-06 0
3.65464e-05 0.000137367 0
-0.000367385 0.000266564 0
-0.000999936 0.000365987 0
-0.00180466 0.000438733 0
-0.00273573 0.00049234 0
-0.00376012 0.000532053 0
-0.00485135 0.000559173 0
-0.00598216 0.000571635 0
-0.0071191 0.000565307 0
-0.00821971 0.000535307 0
-0.00923215 0.00047713 0
-0.0100969 0.000387601 0
-0.0107502 0.000265706 0
-0.0111292 0.000113314 0
-0.0111782 -6.43383e-05 0
-0.0108552 -0.000258664 0
-0.010141 -0.000455563 0
-0.00904823 -0.000637168 0
-0.00762735 -0.000783704 0
-0.00596753 -0.000876118 0
-0.00419208 -0.00089934 0
-0.00244706 -0.000845672 0
-0.000883889 -0.000717503 0
0.000362118 -0.000528505 0
0.00119353 -0.000302903 0
0.0015677 -7.12682e-05 0
0.00150778 0.000131183 0
0.00111111 0.000265489 0
0.000561063 0.000284555 0
0.000138254 0.000138254 0
7.0277e-08 -0.000166761 0
-0.000248223 0.00024114 0
-0.00105565 0.000833795 0
-0.00245852 0.00137694 0
-0.00437588 0.00180552 0
-0.00669747 0.00212551 0
-0.00932097 0.00236014 0
-0.0121581 0.00252576 0
-0.0151265 0.00262515 0
-0.0181393 0.00264924 0
-0.0210966 0.00258193 0
-0.0238825 0.0024052 0
-0.0263665 0.00210368 0
-0.028409 0.00166828 0
-0.02987 0.00109933 0
-0.0306202 0.000408952 0
-0.0305539 -0.000377372 0
-0.0296028 -0.00121973 0
-0.027751 -0.00206048 0
-0.025047 -0.00282903 0
-0.0216111 -0.00344854 0
-0.0176369 -0.00384529 0
-0.0133824 -0.00396022 0
-0.00915089 -0.00376128 0
-0.00526171 -0.00325425 0
-0.00201062 -0.00248885 0
0.000373306 -0.00155789 0
0.00177053 -0.000587677 0
0.00220242 0.000275624 0
0.00184722 0.000872915 0
0.00104367 0.00103072 0
0.000291029 0.000567537 0
-0.0001812 1.43695e-05 0
-0.00100617 0.00113328 0
-0.00274616 0.00248906 0
-0.00532656 0.00370495 0
-0.00860345 0.00467177 0
-0.0124219 0.00539931 0
-0.0166388 0.00592672 0
-0.0211224 0.00627991 0
-0.0257423 0.00645932 0
-0.0303582 0.00644381 0
-0.034814 0.00620045 0
-0.0389366 0.00569515 0
-0.0425407 0.00490181 0
-0.0454376 0.00380957 0
-0.0474471 0.00242851 0
-0.0484107 0.000793655 0
-0.0482067 -0.00103244 0
-0.0467649 -0.00295761 0
-0.0440797 -0.00485951 0
-0.0402219 -0.00659182 0
-0.035347 -0.00799649 0
-0.0296976 -0.00892096 0
-0.0235969 -0.00923984 0
-0.0174309 -0.0088791 0
-0.0116173 -0.00783927 0
-0.00656019 -0.00621201 0
-0.00259503 -0.00418382 0
6.98065e-05 -0.00202381 0
0.00140488 -5.52058e-05 0
0.00159169 0.00137213 0
0.00102442 0.00190233 0
0.000307212 0.00116578 0
-0.00040075 0.00059632 0
-0.00191518 0.00289073 0
-0.00473284 0.00528925 0
-0.00860576 0.00735808 0
-0.0132973 0.00898713 0
-0.0186017 0.0102068 0
-0.0243403 0.0110747 0
-0.0303472 0.0116225 0
-0.0364544 0.0118438 0
-0.042481 0.0117019 0
-0.0482292 0.0111464 0
-0.0534872 0.0101297 0
-0.058036 0.00862022 0
-0.0616609 0.00661292 0
-0.0641629 0.00413666 0
-0.0653729 0.0012591 0
-0.0651642 -0.0019105 0
-0.0634645 -0.00522113 0
-0.0602652 -0.00848045 0
-0.0556344 -0.0114595 0
-0.0497285 -0.0139096 0
-0.0427996 -0.0155862 0
-0.0351944 -0.0162805 0
-0.0273429 -0.015856 0
-0.0197311 -0.0142879 0
-0.0128558 -0.0116958 0
-0.00716127 -0.00835982 0
-0.00296435 -0.00470957 0
-0.000384834 -0.00128404 0
0.00070485 0.00132448 0
0.000698713 0.00252339 0
0.000243822 0.00171681 0
-0.000635125 0.0016322 0
-0.00288576 0.00561993 0
-0.00684313 0.00933509 0
-0.0120541 0.0123961 0
-0.0181711 0.0147577 0
-0.0249316 0.0165011 0
-0.0321244 0.0177116 0
-0.0395577 0.0184259 0
-0.0470374 0.0186274 0
-0.0543558 0.0182632 0
-0.0612897 0.0172672 0
-0.0676051 0.0155823 0
-0.0730659 0.0131773 0
-0.0774445 0.0100593 0
-0.0805334 0.00628116 0
-0.0821556 0.00194683 0
-0.0821757 -0.00278679 0
-0.0805058 -0.00771454 0
-0.0771134 -0.0125786 0
-0.0720377 -0.0170679 0
-0.0654067 -0.020838 0
-0.0574523 -0.0235412 0
-0.0485175 -0.0248655 0
-0.0390545 -0.0245855 0
-0.0296054 -0.0226192 0
-0.0207608 -0.0190843 0
-0.0130908 -0.0143359 0
-0.00705419 -0.00896703 0
-0.00290177 -0.00375851 0
-0.000601625 0.000409116 0
0.000195853 0.00264741 0
0.000141452 0.00210208 0
-0.00087228 0.0031396 0
-0.00386472 0.00935559 0
-0.00896142 0.0146535 0
-0.0154943 0.0188216 0
-0.0229999 0.0219547 0
-0.0311589 0.0242236 0
-0.0397319 0.0257548 0
-0.0485093 0.0265934 0
-0.0572824 0.0267127 0
-0.06583 0.0260439 0
-0.0739173 0.0245077 0
-0.0813013 0.0220411 0
-0.0877387 0.0186167 0
-0.0929951 0.0142551 0
-0.0968542 0.00903327 0
-0.0991256 0.00308842 0
-0.099653 -0.0033809 0
-0.0983175 -0.0101259 0
-0.0950438 -0.0168334 0
-0.0898195 -0.0231132 0
-0.0827215 -0.0285217 0
-0.0739376 -0.0325957 0
-0.0637851 -0.0348983 0
-0.0527195 -0.0350813 0
-0.0413286 -0.0329634 0
-0.0302991 -0.0286142 0
-0.0203485 -0.0224266 0
-0.0121177 -0.0151437 0
-0.00604168 -0.00781035 0
-0.00223322 -0.00164767 0
-0.000424246 0.00209775 0
1.9184e-05 0.00226272 0
-0.00110241 0.00511429 0
-0.00480922 0.0140802 0
-0.0109941 0.0212105 0
-0.01878 0.0265835 0
-0.0275933 0.0305117 0
-0.0370636 0.0332958 0
-0.0469293 0.0351212 0
-0.0569716 0.0360468 0
-0.0669771 0.0360379 0
-0.0767224 0.0350115 0
-0.0859719 0.0328769 0
-0.0944818 0.0295659 0
-0.102006 0.025054 0
-0.108305 0.0193726 0
-0.113147 0.0126168 0
-0.11632 0.00494901 0
-0.117633 -0.00340056 0
-0.116926 -0.012149 0
-0.114067 -0.0209424 0
-0.108979 -0.0293165 0
-0.101669 -0.0367265 0
-0.0922607 -0.0425831 0
-0.0810223 -0.0463019 0
-0.0683895 -0.047376 0
-0.0549763 -0.0454728 0
-0.0415586 -0.0405519 0
-0.0290147 -0.0329833 0
-0.0182088 -0.0236236 0
-0.00982317 -0.0137921 0
-0.00418381 -0.0051137 0
-0.00115107 0.00072208 0
-0.00011901 0.00216289 0
-0.00131526 0.00753195 0
-0.00567785 0.0197319 0
-0.0128548 0.0289205 0
-0.0217788 0.0355834 0
-0.0317788 0.0403252 0
-0.042442 0.0436158 0
-0.0534921 0.0457171 0
-0.0647086 0.0467096 0
-0.0758818 0.0465537 0
-0.0867945 0.0451538 0
-0.0972175 0.0424072 0
-0.106911 0.0382389 0
-0.115628 0.0326225 0
-0.123118 0.0255929 0
-0.129133 0.0172536 0
-0.13343 0.00778134 0
-0.135776 -0.00257309 0
-0.135962 -0.0134978 0
-0.133799 -0.0246152 0
-0.129135 -0.0353957 0
-0.121897 -0.0451956 0
-0.112126 -0.0532937 0
-0.100014 -0.058941 0
-0.0859474 -0.0614367 0
-0.0705322 -0.0602407 0
-0.0546087 -0.0551253 0
-0.0392123 -0.0463502 0
-0.0254607 -0.0348143 0
-0.0143524 -0.0220954 0
-0.00651543 -0.0102868 0
-0.00200808 -0.0016449 0
-0.000277078 0.00176681 0
-0.00149988 0.0103471 0
-0.00642883 0.0262083 0
-0.0144603 0.0376526 0
-0.0243655 0.0456805 0
-0.035393 0.0512557 0
-0.0470972 0.0550526 0
-0.0591938 0.0574271 0
-0.0714665 0.0584888 0
-0.0837156 0.0581969 0
-0.0957358 0.0564436 0
-0.107308 0.053113 0
-0.1182 0.0481181 0
-0.128163 0.0414233 0
-0.136937 0.0330569 0
-0.144253 0.02312 0
-0.149833 0.0117919 0
-0.153405 -0.000665832 0
-0.154709 -0.0139145 0
-0.153502 -0.0275691 0
-0.149559 -0.0410483 0
-0.142721 -0.0536195 0
-0.132929 -0.0644331 0
-0.120275 -0.0725671 0
-0.105053 -0.0770999 0
-0.0878156 -0.0772297 0
-0.0694214 -0.0724539 0
-0.051032 -0.0628073 0
-0.034026 -0.0491148 0
-0.0197802 -0.0331488 0
-0.00933167 -0.0175188 0
-0.0030433 -0.0052086 0
-0.000466764 0.00102296 0
-0.0016452 0.0134922 0
-0.00702132 0.0333683 0
-0.0157315 0.0472343 0
-0.0264223 0.0566948 0
-0.0382807 0.0631273 0
-0.0508369 0.0674412 0
-0.0638037 0.0701018 0
-0.0769727 0.0712557 0
-0.0901579 0.0708643 0
-0.103169 0.0688077 0
-0.115801 0.0649535 0
-0.127829 0.059197 0
-0.139006 0.0514847 0
-0.149065 0.0418283 0
-0.157716 0.0303151 0
-0.164656 0.0171172 0
-0.169574 0.0024985 0
-0.172167 -0.0131809 0
-0.172145 -0.0295329 0
-0.169223 -0.0459489 0
-0.163154 -0.0616264 0
-0.153769 -0.0756028 0
-0.141031 -0.0867892 0
-0.125101 -0.09403 0
-0.106421 -0.0962169 0
-0.0857972 -0.0924846 0
-0.0644574 -0.0825059 0
-0.0440136 -0.0668661 0
-0.0262595 -0.0473975 0
-0.0127563 -0.0272219 0
-0.00431892 -0.0102313 0
-0.000703014 -0.000146815 0
-0.00174094 0.0168783 0
-0.00741813 0.0410355 0
-0.0165969 0.057456 0
-0.0278428 0.0684098 0
-0.0402997 0.0757276 0
-0.0534801 0.0805776 0
-0.0670962 0.0835483 0
-0.0809491 0.0848311 0
-0.0948679 0.0843928 0
-0.108679 0.0821017 0
-0.122193 0.0778055 0
-0.135196 0.0713762 0
-0.147448 0.0627348 0
-0.158679 0.0518675 0
-0.168591 0.0388393 0
-0.176864 0.0238057 0
-0.183161 0.00702531 0
-0.187144 -0.0111317 0
-0.188489 -0.0302599 0
-0.186871 -0.0497614 0
-0.181962 -0.0687923 0
-0.173478 -0.0863057 0
-0.161233 -0.101069 0
-0.145212 -0.111701 0
-0.12568 -0.116759 0
-0.103309 -0.114938 0
-0.0792992 -0.105402 0
-0.0554272 -0.0882857 0
-0.0339003 -0.0652589 0
-0.0169076 -0.0398563 0
-0.00590138 -0.0170405 0
-0.00100252 -0.00185235 0
-0.00177881 0.0203981 0
-0.0075892 0.0490033 0
-0.0169985 0.0680763 0
-0.0285393 0.0805762 0
-0.0413298 0.0888085 0
-0.0548693 0.0942166 0
-0.0688684 0.0975246 0
-0.0831367 0.0989762 0
-0.097518 0.0985478 0
-0.111856 0.0960963 0
-0.12598 0.0914481 0
-0.13969 0.0844476 0
-0.152761 0.0749855 0
-0.16493 0.063017 0
-0.175906 0.0485779 0
-0.185367 0.031801 0
-0.19297 0.0129302 0
-0.198357 -0.0076668 0
-0.20119 -0.029547 0
-0.201119 -0.0521633 0
-0.197751 -0.0746671 0
-0.190696 -0.0959704 0
-0.179604 -0.114741 0
-0.164252 -0.129402 0
-0.144662 -0.13818 0
-0.121276 -0.139273 0
-0.0951529 -0.131199 0
-0.0681163 -0.113397 0
-0.0427292 -0.0870615 0
-0.0218757 -0.0558999 0
-0.0078533 -0.0260256 0
-0.00138226 -0.00423713 0
-0.00175355 0.0239304 0
-0.00751515 0.0570429 0
-0.0168981 0.0788289 0
-0.028452 0.0929183 0
-0.0412858 0.102091 0
-0.054887 0.108075 0
-0.0689623 0.111741 0
-0.0833265 0.113393 0
-0.0978359 0.113022 0
-0.112352 0.110477 0
-0.126724 0.105562 0
-0.140773 0.0980941 0
-0.154295 0.0879316 0
-0.167052 0.0749968 0
-0.178772 0.059294 0
-0.189154 0.0409285 0
-0.197872 0.0201232 0
-0.204578 -0.00276638 0
-0.208932 -0.0272606 0
-0.210574 -0.0528792 0
-0.209079 -0.0788139 0
-0.203965 -0.103993 0
-0.194725 -0.12705 0
-0.1809 -0.146271 0
-0.162214 -0.159587 0
-0.138783 -0.164682 0
-0.111388 -0.159309 0
-0.081748 -0.141964 0
-0.0526591 -0.112971 0
-0.0277033 -0.0757997 0
-0.0102273 -0.0376242 0
-0.00185877 -0.00747815 0
-0.00166395 0.0273479 0
-0.00719066 0.0649137 0
-0.0162829 0.0894333 0
-0.0275573 0.105142 0
-0.040129 0.115273 0
-0.0534735 0.121839 0
-0.0672889 0.125867 0
-0.0813907 0.127732 0
-0.0956453 0.127447 0
-0.109931 0.124855 0
-0.124119 0.119743 0
-0.138059 0.111903 0
-0.151577 0.101163 0
-0.164471 0.0874157 0
-0.176511 0.0706347 0
-0.187438 0.0508972 0
-0.196967 0.0284014 0
-0.204789 0.00348335 0
-0.210577 -0.0233684 0
-0.213986 -0.0517197 0
-0.2146 -0.0808556 0
-0.211874 -0.109791 0
-0.20516 -0.137206 0
-0.193755 -0.161344 0
-0.177043 -0.179912 0
-0.154728 -0.190104 0
-0.127172 -0.18884 0
-0.0958054 -0.173439 0
-0.0634723 -0.142917 0
-0.0343713 -0.0999105 0
-0.0130607 -0.0523 0
-0.00244739 -0.0117843 0
-0.00151355 0.0305254 0
-0.00662697 0.0723764 0
-0.0151708 0.0996068 0
-0.0258759 0.116948 0
-0.0378781 0.12804 0
-0.0506405 0.135178 0
-0.0638469 0.13955 0
-0.0773086 0.141613 0
-0.0908986 0.141411 0
-0.104512 0.13879 0
-0.118044 0.133527 0
-0.131378 0.125392 0
-0.144379 0.114192 0
-0.156893 0.0997946 0
-0.168747 0.0821496 0
-0.179748 0.0613098 0
-0.189677 0.0374474 0
-0.198288 0.0108699 0
-0.205292 -0.0179625 0
-0.210394 -0.0486139 0
-0.21322 -0.0805222 0
-0.213208 -0.112861 0
-0.209599 -0.14446 0
-0.201463 -0.17363 0
-0.187827 -0.197973 0
-0.16791 -0.214274 0
-0.141524 -0.218612 0
-0.10961 -0.206947 0
-0.0748202 -0.176532 0
-0.0417903 -0.128426 0
-0.0163716 -0.0705135 0
-0.00316201 -0.0173937 0
-0.00131096 0.0333499 0
-0.0058532 0.0792075 0
-0.0136132 0.10908 0
-0.0234774 0.128045 0
-0.0346162 0.140085 0
-0.0464801 0.14776 0
-0.0587339 0.152428 0
-0.0711799 0.154642 0
-0.0836952 0.154487 0
-0.0961912 0.151824 0
-0.10859 0.146424 0
-0.12081 0.138049 0
-0.132763 0.12649 0
-0.144353 0.111601 0
-0.155475 0.0933186 0
-0.166013 0.0716791 0
-0.175838 0.046833 0
-0.184796 0.0190533 0
-0.192683 -0.0112549 0
-0.199272 -0.0436302 0
-0.204258 -0.0776938 0
-0.207112 -0.112848 0
-0.207021 -0.148175 0
-0.202873 -0.182198 0
-0.193345 -0.212569 0
-0.177136 -0.235805 0
-0.153393 -0.247209 0
-0.122369 -0.241287 0
-0.0862387 -0.213113 0
-0.0498002 -0.161314 0
-0.0201577 -0.0926871 0
-0.00401581 -0.0245715 0
-0.00106962 0.0357305 0
-0.0049164 0.085216 0
-0.0116959 0.117611 0
-0.0204817 0.138163 0
-0.0304922 0.151115 0
-0.0411668 0.159268 0
-0.0521484 0.164156 0
-0.0632266 0.166439 0
-0.0742813 0.16626 0
-0.0852408 0.163506 0
-0.0960556 0.157955 0
-0.106685 0.149367 0
-0.117091 0.137531 0
-0.127237 0.122297 0
-0.137091 0.103599 0
-0.146625 0.0814703 0
-0.155809 0.0560518 0
-0.164604 0.0275881 0
-0.172934 -0.00357363 0
-0.180665 -0.0369905 0
-0.187577 -0.072436 0
-0.193234 -0.109595 0
-0.196841 -0.147912 0
-0.197175 -0.186275 0
-0.192613 -0.222581 0
-0.181334 -0.253281 0
-0.161748 -0.273061 0
-0.133231 -0.274976 0
-0.0971775 -0.251608 0
-0.0581782 -0.198257 0
-0.0243989 -0.119165 0
-0.00502343 -0.0336108 0
-0.000807353 0.0376075 0
-0.00388041 0.0902588 0
-0.00953794 0.125005 0
-0.0170584 0.147076 0
-0.0257197 0.160875 0
-0.0349539 0.169417 0
-0.044382 0.174416 0
-0.0537808 0.176655 0
-0.0630338 0.176351 0
-0.0720883 0.173429 0
-0.0809273 0.167686 0
-0.0895533 0.158892 0
-0.0979812 0.146841 0
-0.106237 0.13139 0
-0.114361 0.112484 0
-0.12241 0.090167 0
-0.130456 0.0645861 0
-0.138582 0.0359748 0
-0.146848 0.00463476 0
-0.155243 -0.0290721 0
-0.163669 -0.0650169 0
-0.171831 -0.103195 0
-0.179032 -0.143503 0
-0.184033 -0.18535 0
-0.185007 -0.227095 0
-0.179669 -0.265385 0
-0.165666 -0.294546 0
-0.141353 -0.306323 0
-0.107037 -0.29063 0
-0.0666536 -0.238618 0
-0.0290657 -0.150172 0
-0.00620556 -0.0448398 0
-0.000545577 0.0389604 0
-0.00282412 0.0942575 0
-0.00728986 0.131129 0
-0.013424 0.154606 0
-0.0205711 0.169153 0
-0.0281635 0.177965 0
-0.0358049 0.182938 0
-0.0432635 0.184991 0
-0.05043 0.184435 0
-0.0572759 0.181246 0
-0.0638214 0.175254 0
-0.0701166 0.166246 0
-0.0762321 0.15403 0
-0.0822569 0.138481 0
-0.0882997 0.119559 0
-0.0944941 0.0973341 0
-0.101002 0.0719739 0
-0.108013 0.0437231 0
-0.115716 0.0128559 0
-0.124244 -0.0203701 0
-0.133646 -0.055892 0
-0.143799 -0.0940038 0
-0.154186 -0.135106 0
-0.16367 -0.179262 0
-0.170361 -0.225518 0
-0.171629 -0.271032 0
-0.164413 -0.310118 0
-0.14596 -0.333517 0
-0.115206 -0.328506 0
-0.0749249 -0.281407 0
-0.0341298 -0.185765 0
-0.00759555 -0.0586409 0
-0.000308744 0.0398147 0
-0.00184016 0.0972131 0
-0.0051316 0.135931 0
-0.0098381 0.160645 0
-0.0153718 0.175795 0
-0.0211755 0.18472 0
-0.0268474 0.189497 0
-0.0321567 0.1912 0
-0.0370105 0.190246 0
-0.0414119 0.186682 0
-0.0454249 0.180377 0
-0.0491525 0.171145 0
-0.0527244 0.158818 0
-0.0562928 0.143286 0
-0.0600317 0.124536 0
-0.0641409 0.102662 0
-0.0688512 0.0778652 0
-0.0744285 0.0504194 0
-0.0811646 0.0205993 0
-0.0893345 -0.0114156 0
-0.0991345 -0.0456451 0
-0.110616 -0.0826157 0
-0.123499 -0.123224 0
-0.136888 -0.168271 0
-0.149009 -0.217697 0
-0.157088 -0.269506 0
-0.157495 -0.318453 0
-0.146379 -0.354751 0
-0.121078 -0.363326 0
-0.082669 -0.325278 0
-0.0395738 -0.225785 0
-0.0092462 -0.0754826 0
-0.000124532 0.040248 0
-0.00103569 0.0992224 0
-0.00327358 0.139451 0
-0.00660327 0.165161 0
-0.0104944 0.180704 0
-0.0144155 0.189536 0
-0.0179795 0.193917 0
-0.020975 0.195085 0
-0.02334 0.19358 0
-0.0251208 0.18953 0
-0.0264335 0.182854 0
-0.0274387 0.173401 0
-0.0283287 0.161025 0
-0.0293203 0.145639 0
-0.0306512 0.127252 0
-0.0325805 0.105983 0
-0.0353915 0.0820646 0
-0.0393968 0.0558026 0
-0.0449421 0.0274975 0
-0.0523933 -0.00269268 0
-0.062062 -0.0348993 0
-0.0741528 -0.0697897 0
-0.0886479 -0.108671 0
-0.105001 -0.153082 0
-0.12177 -0.203995 0
-0.136304 -0.260595 0
-0.144666 -0.318596 0
-0.142044 -0.368346 0
-0.12405 -0.393025 0
-0.0895293 -0.368509 0
-0.0453886 -0.26979 0
-0.0112328 -0.0959617 0
-2.5797e-05 0.0403983 0
-0.000538044 0.100496 0
-0.00196342 0.141841 0
-0.00406799 0.168205 0
-0.00635595 0.183839 0
-0.00834313 0.192309 0
-0.00969052 0.196055 0
-0.010235 0.196487 0
-0.00996843 0.194277 0
-0.00899574 0.189641 0
-0.00749436 0.182554 0
-0.00568787 0.1729 0
-0.00383348 0.160561 0
-0.00221344 0.145474 0
-0.00112835 0.127663 0
-0.000893432 0.107267 0
-0.00183563 0.0845345 0
-0.00429245 0.0597948 0
-0.00861483 0.0333729 0
-0.0151733 0.00544163 0
-0.0243278 -0.0242105 0
-0.0363826 -0.056333 0
-0.05154 -0.0924757 0
-0.0696644 -0.1348 0
-0.0898421 -0.18533 0
-0.109874 -0.244695 0
-0.125899 -0.310109 0
-0.132459 -0.372895 0
-0.123469 -0.415459 0
-0.0950673 -0.408999 0
-0.0515446 -0.316964 0
-0.0136468 -0.120841 0
-5.6052e-05 0.0404802 0
-0.000509564 0.101379 0
-0.00150312 0.143376 0
-0.00263721 0.169909 0
-0.00341642 0.185202 0
-0.00343882 0.192955 0
-0.00246413 0.195781 0
-0.000420821 0.195261 0
0.00261434 0.192201 0
0.00645725 0.186902 0
0.0108557 0.179394 0
0.0155132 0.169596 0
0.0201049 0.157419 0
0.0242857 0.142816 0
0.0276979 0.125824 0
0.0299789 0.10659 0
0.0307709 0.0853616 0
0.029732 0.0624635 0
0.0265428 0.0382158 0
0.0209041 0.0127959 0
0.0125009 -0.0140072 0
0.00100037 -0.042981 0
-0.0139481 -0.0757218 0
-0.0325704 -0.114807 0
-0.0545935 -0.163121 0
-0.0785984 -0.222867 0
-0.101298 -0.293212 0
-0.117109 -0.367422 0
-0.11853 -0.4285 0
-0.0986576 -0.444232 0
-0.0579205 -0.36599 0
-0.0165723 -0.15106 0
-0.000281629 0.0408179 0
-0.00117833 0.102392 0
-0.00228129 0.14446 0
-0.00278961 0.170467 0
-0.00217573 0.184809 0
-0.000180047 0.191375 0
0.00326616 0.192941 0
0.00807431 0.19125 0
0.0140312 0.187219 0
0.020852 0.18122 0
0.0282033 0.173326 0
0.0357198 0.163489 0
0.0430156 0.151638 0
0.0496927 0.137739 0
0.0553485 0.121833 0
0.0595871 0.104061 0
0.0620336 0.0846518 0
0.0623497 0.0638962 0
0.0602471 0.0420748 0
0.0554873 0.0193354 0
0.0478498 -0.00450602 0
0.0370968 -0.0302286 0
0.022944 -0.0593729 0
0.00497182 -0.0945618 0
-0.0172352 -0.139137 0
-0.0432757 -0.196806 0
-0.0709583 -0.26889 0
-0.0953329 -0.351558 0
-0.108113 -0.430163 0
-0.0993101 -0.471244 0
-0.0641677 -0.414858 0
-0.0200382 -0.187671 0
-0.000815813 0.0419153 0
-0.00289325 0.104269 0
-0.00482141 0.145615 0
-0.00509347 0.170093 0
-0.00315603 0.182632 0
0.000995481 0.187405 0
0.00713493 0.187325 0
0.0149316 0.184261 0
0.0239973 0.179186 0
0.0339257 0.172504 0
0.0442995 0.164316 0
0.0546932 0.154589 0
0.0646752 0.143261 0
0.073813 0.130301 0
0.0816801 0.115748 0
0.0878686 0.0997195 0
0.0920054 0.0824101 0
0.0937702 0.064057 0
0.0929097 0.0448771 0
0.0892391 0.0249636 0
0.0826162 0.00412623 0
0.0728678 -0.0183595 0
0.059737 -0.0439583 0
0.0428366 -0.0751038 0
0.0216567 -0.115208 0
-0.00436782 -0.16867 0
-0.034777 -0.238934 0
-0.0661692 -0.325747 0
-0.0905725 -0.418791 0
-0.0953989 -0.486592 0
-0.0694819 -0.460569 0
-0.0239312 -0.23164 0
-0.00186211 0.0445932 0
-0.00620658 0.108013 0
-0.00982449 0.147417 0
-0.0101789 0.168917 0
-0.00682198 0.178513 0
-0.000207653 0.180758 0
0.00898616 0.178639 0
0.0200978 0.174039 0
0.0325296 0.16791 0
0.0457456 0.160635 0
0.0592542 0.152303 0
0.072588 0.142875 0
0.0852933 0.132287 0
0.0969285 0.120502 0
0.10707 0.107539 0
0.115322 0.0934874 0
0.121336 0.078492 0
0.124821 0.0627247 0
0.125563 0.0463276 0
0.12342 0.0293272 0
0.118296 0.0115092 0
0.110077 -0.00777527 0
0.0985216 -0.0298559 0
0.0832171 -0.0570013 0
0.0635514 -0.0924647 0
0.0386775 -0.140515 0
0.00783016 -0.205833 0
-0.0281802 -0.291446 0
-0.063498 -0.393371 0
-0.0842865 -0.486397 0
-0.0722363 -0.498731 0
-0.0278468 -0.283418 0
-0.00377951 0.0502349 0
-0.0119513 0.114887 0
-0.0181021 0.150311 0
-0.0185081 0.166784 0
-0.0132321 0.172014 0
-0.00351622 0.170927 0
0.00933732 0.166422 0
0.0242641 0.160217 0
0.0404423 0.153122 0
0.0572254 0.145424 0
0.0740749 0.137156 0
0.0905125 0.128251 0
0.106094 0.118625 0
0.120399 0.108223 0
0.133034 0.0970403 0
0.143644 0.0851245 0
0.151918 0.0725667 0
0.157612 0.0594707 0
0.160547 0.0459046 0
0.160609 0.0318315 0
0.157726 0.0170116 0
0.151806 0.000860894 0
0.14261 -0.0177404 0
0.129679 -0.0408805 0
0.112261 -0.0715027 0
0.0892025 -0.113544 0
0.0590413 -0.171795 0
0.0207739 -0.251206 0
-0.0234946 -0.354025 0
-0.0618427 -0.466607 0
-0.0693949 -0.523019 0
-0.0308245 -0.342089 0
-0.00713701 0.0611514 0
-0.0211344 0.12614 0
-0.0300353 0.15411 0
-0.029471 0.162826 0
-0.0209062 0.162131 0
-0.00681931 0.157008 0
0.0107298 0.149939 0
0.0302718 0.142232 0
0.0508048 0.134397 0
0.0716303 0.126541 0
0.0922156 0.118604 0
0.112115 0.110466 0
0.130931 0.102013 0
0.148296 0.0931647 0
0.163876 0.0838834 0
0.177372 0.0741767 0
0.188529 0.0640824 0
0.197148 0.0536425 0
0.203082 0.0428642 0
0.206228 0.0316635 0
0.2065 0.0197898 0
0.20378 0.00672261 0
0.197843 -0.00846867 0
0.188176 -0.0275535 0
0.173824 -0.0530607 0
0.153288 -0.0883911 0
0.124462 -0.137961 0
0.0849976 -0.207308 0
0.0339626 -0.302619 0
-0.0219012 -0.4238 0
-0.0555508 -0.524624 0
-0.0308461 -0.40376 0
-0.012545 0.0808334 0
-0.0338945 0.141805 0
-0.0433152 0.156766 0
-0.0383336 0.154624 0
-0.0233401 0.146775 0
-0.00244041 0.137377 0
0.0215978 0.127982 0
0.0470652 0.119179 0
0.07295 0.111032 0
0.0986164 0.103414 0
0.123616 0.0961454 0
0.147593 0.0890476 0
0.170237 0.0819723 0
0.191265 0.0748118 0
0.210421 0.0675002 0
0.227478 0.0600084 0
0.24224 0.0523308 0
0.254552 0.0444636 0
0.264287 0.0363737 0
0.27134 0.0279556 0
0.275591 0.0189736 0
0.276869 0.00898122 0
0.274877 -0.00279805 0
0.269024 -0.0177044 0
0.258181 -0.0377152 0
0.240492 -0.0655112 0
0.213249 -0.104772 0
0.172984 -0.160768 0
0.116367 -0.241508 0
0.0443098 -0.356991 0
-0.0213044 -0.49217 0