# vtk DataFile Version 2.0
Lid-driven cavity
ASCII
DATASET STRUCTURED_POINTS
DIMENSIONS 32 32 1
ORIGIN 0.015625 0.015625 0
SPACING 0.03125 0.03125 1
POINT_DATA 1024
SCALARS pressure double 1
LOOKUP_TABLE default
44.0387
43.8485
43.5112
43.1339
42.7815
42.487
42.2668
42.1326
42.0975
42.178
42.3924
42.758
43.2875
43.9847
44.8408
45.8313
46.9146
48.0336
49.1139
50.0707
50.8202
51.2917
51.4405
51.2581
50.7774
50.0695
49.2334
48.3826
47.6303
47.0743
46.7849
46.7717
44.2288
44.0303
43.7485
43.4454
43.1614
42.9203
42.7363
42.6214
42.589
42.655
42.8366
43.1502
43.608
44.2147
44.9637
45.8344
46.79
47.7813
48.7406
49.591
50.2563
50.6725
50.8003
50.6347
50.2082
49.5881
48.8652
48.1366
47.4962
47.0205
46.7645
46.7583
44.5787
44.2951
44.0029
43.7261
43.4788
43.2688
43.1021
42.9873
42.9365
42.9657
43.0933
43.3375
43.7136
44.2304
44.8864
45.6664
46.5391
47.4591
48.3613
49.1699
49.808
50.2104
50.3359
50.178
49.7688
49.1755
48.4877
47.8003
47.1967
46.7439
46.4901
46.4729
44.968
44.5627
44.2233
43.94
43.7008
43.4961
43.3217
43.1809
43.0843
43.0488
43.0956
43.2474
43.5256
43.9456
44.5134
45.221
46.0431
46.935
47.832
48.6553
49.3222
49.7594
49.9174
49.7827
49.3838
48.7878
48.0873
47.3808
46.754
46.2704
45.9757
45.9057
45.2839
44.7436
44.3388
44.0269
43.7706
43.5433
43.3306
43.131
42.9541
42.8187
42.7506
42.7793
42.934
43.2397
43.7119
44.3516
45.1413
46.0364
46.9725
47.8661
48.6246
49.1611
49.4103
49.3442
48.9809
48.3838
47.6489
46.8833
46.1827
45.6178
45.237
45.0758
45.4177
44.7416
44.2641
43.908
43.6114
43.3317
43.0459
42.7486
42.4494
42.1706
41.9438
41.807
41.7998
41.9586
42.3108
42.8692
43.6268
44.5429
45.5556
46.5768
47.5018
48.2239
48.6539
48.7382
48.4739
47.9121
47.1487
46.3025
45.4877
44.7939
44.282
43.9953
45.2615
44.4559
43.9036
43.4911
43.1314
42.7678
42.3698
41.9296
41.4582
40.9821
40.5403
40.1807
39.9551
39.9139
40.0994
40.5392
41.2407
42.1766
43.2927
44.499
45.6772
46.6965
47.4332
47.7946
47.7403
47.2946
46.5443
45.6192
44.6609
43.7923
43.1032
42.6571
44.7082
43.784
43.1574
42.6765
42.2302
41.7484
41.1948
40.5601
39.8571
39.1176
38.3887
37.7296
37.2063
36.8858
36.8289
37.0828
37.6736
38.6003
39.8277
41.2689
42.7946
44.2455
45.4537
46.2705
46.5964
46.4064
45.7603
44.7925
43.6792
42.5954
41.6814
41.0346
43.6551
42.6269
41.9268
41.3647
40.8061
40.1687
39.4109
38.5224
37.5182
36.4352
35.3291
34.2712
33.3439
32.6341
32.2257
32.1908
32.5801
33.4303
34.7459
36.4528
38.4155
40.4465
42.3253
43.8297
44.7749
45.0548
44.6731
43.7511
42.5012
41.1707
39.9794
39.0832
42.01
40.8952
40.1223
39.4643
38.7649
37.9308
36.9152
35.7063
34.3207
32.7998
31.2077
29.6288
28.1633
26.922
26.0172
25.5527
25.6107
26.27
27.6072
29.5746
32.0416
34.7974
37.5658
40.0362
41.9104
42.9618
43.0947
42.3825
41.0627
39.4734
37.9515
36.7461
39.6983
38.5171
37.6713
36.9008
36.03
34.9549
33.6236
32.0219
30.1662
28.1015
25.8992
23.657
21.495
19.5512
17.9721
16.9014
16.4643
16.7672
18.0043
20.1746
23.1682
26.7634
30.6335
34.3722
37.5436
39.7573
40.7604
40.5226
39.2729
37.4476
35.5457
33.9593
36.6708
35.4455
34.5266
33.6263
32.5522
31.1911
29.485
27.4158
24.9981
22.2781
19.3335
16.2746
13.2427
10.4058
7.95029
6.06698
4.93346
4.69224
5.64466
7.89396
11.3689
15.8565
20.9955
26.2899
31.1529
34.9909
37.3279
37.9494
37.0103
35.0288
32.7103
30.6602
32.9103
31.665
30.6733
29.6267
28.3197
26.6304
24.4943
21.8875
18.8207
15.3387
11.5238
7.4978
3.42333
-0.499371
-4.04061
-6.95591
-9.00789
-9.99527
-9.56202
-7.42496
-3.59696
1.74377
8.2301
15.2996
22.2212
28.1741
32.3951
34.3858
34.1226
32.1478
29.4032
26.7992
28.4363
27.1961
26.134
24.9285
23.3648
21.3137
18.7035
15.5027
11.7155
7.38344
2.59043
-2.53154
-7.7995
-12.9806
-17.7994
-21.9539
-25.1395
-27.0836
-27.4197
-25.6401
-21.673
-15.6313
-7.84914
1.08761
10.337
18.8554
25.5458
29.5204
30.4343
28.7391
25.6052
22.3539
23.3058
22.0962
20.9698
19.6005
17.7678
15.3367
12.2277
8.40051
3.85068
-1.38635
-7.22709
-13.5319
-20.0992
-26.6649
-32.9085
-38.4691
-42.9708
-46.0587
-47.388
-46.2402
-42.4188
-35.9441
-27.0729
-16.3555
-4.68149
6.72569
16.4263
23.0524
25.7691
24.7561
21.3385
17.3499
17.6112
16.4569
15.278
13.7512
11.6545
8.84799
5.24425
0.792964
-4.52088
-10.67
-17.5737
-25.0874
-32.9935
-40.9997
-48.7433
-55.8077
-61.749
-66.1333
-68.5834
-68.3342
-64.981
-58.4342
-48.834
-36.6278
-22.6648
-8.26059
4.84693
14.762
19.9909
20.197
16.6923
11.8879
11.4728
10.3966
9.18424
7.52202
5.18935
2.04206
-2.01562
-7.04527
-13.0739
-20.0841
-28.0004
-36.6752
-45.8785
-55.2931
-64.5195
-73.092
-80.5057
-86.2569
-89.8939
-90.7301
-88.1485
-81.9325
-72.0785
-58.8679
-43.0069
-25.7772
-9.10649
4.60318
13.0661
15.1453
11.8592
6.18037
5.02846
4.04954
2.83108
1.07485
-1.43721
-4.85435
-9.28223
-14.7952
-21.4338
-29.192
-38.0011
-47.7127
-58.0867
-68.7857
-79.3793
-89.3604
-98.174
-105.258
-110.089
-112.078
-110.491
-104.984
-95.3951
-81.7961
-64.6526
-45.0636
-24.9787
-7.19764
5.1451
9.82796
7.1848
0.602954
-1.58008
-2.44842
-3.63623
-5.42233
-8.02385
-11.5989
-16.2668
-22.1174
-29.2065
-37.5411
-47.0598
-57.6152
-68.9593
-80.7381
-92.4959
-103.693
-113.737
-122.023
-127.975
-131.067
-130.571
-126.055
-117.202
-103.86
-86.1823
-64.9399
-41.8977
-20.0562
-3.34658
4.69372
3.23801
-4.23227
-8.22242
-8.97531
-10.0858
-11.8115
-14.3747
-17.9514
-22.6818
-28.6765
-36.0094
-44.7012
-54.6986
-65.8552
-77.9165
-90.5148
-103.174
-115.331
-126.365
-135.646
-142.573
-146.617
-147.177
-143.782
-136
-123.465
-105.994
-83.9167
-58.6016
-32.9848
-11.6203
0.511612
0.911114
-7.36606
-14.7955
-15.4395
-16.4151
-17.9594
-20.3139
-23.689
-28.2594
-34.1644
-41.4996
-50.3001
-60.5195
-72.0111
-84.5146
-97.6502
-110.926
-123.759
-135.513
-145.541
-153.235
-158.059
-159.527
-157.208
-150.627
-139.241
-122.551
-100.389
-73.5482
-44.6068
-18.4581
-1.51411
1.56074
-7.32537
-21.2401
-21.7964
-22.5649
-23.7691
-25.6954
-28.6175
-32.7649
-38.3172
-45.3959
-54.0495
-64.2348
-75.8013
-88.4818
-101.886
-115.509
-128.754
-140.973
-151.51
-159.755
-165.179
-167.35
-165.921
-160.445
-150.27
-134.631
-112.872
-85.0945
-53.2407
-22.1867
0.37681
7.19673
-1.88156
-27.5599
-28.0671
-28.5332
-29.1872
-30.4074
-32.5752
-36.0041
-40.9264
-47.4941
-55.7636
-65.6928
-77.1254
-89.7788
-103.246
-117.009
-130.457
-142.932
-153.776
-162.38
-168.223
-170.885
-170.07
-165.399
-156.2
-141.501
-120.211
-91.6977
-57.0394
-20.7064
8.60671
20.7141
12.2784
-33.8496
-34.3636
-34.3876
-34.206
-34.3689
-35.4324
-37.8281
-41.8627
-47.71
-55.4274
-64.9584
-76.1254
-88.6246
-102.029
-115.8
-129.318
-141.914
-152.927
-161.747
-167.857
-170.839
-170.351
-165.994
-157.205
-142.947
-121.68
-92.07
-54.1454
-11.5745
26.3216
46.1432
39.9653
-40.3474
-40.9312
-40.2832
-38.861
-37.5209
-37.0848
-38.1399
-41.0537
-46.016
-53.0681
-62.122
-72.9651
-85.261
-98.555
-112.288
-125.825
-138.49
-149.614
-158.582
-164.866
-168.033
-167.698
-163.316
-154.186
-139.223
-116.935
-85.2195
-42.797
7.87675
57.3733
88.8699
87.968
-47.5521
-48.2319
-46.4924
-43.2268
-39.8094
-37.4276
-36.8478
-38.4631
-42.4508
-48.8065
-57.387
-67.9274
-80.0472
-93.2576
-106.976
-120.55
-133.294
-144.531
-153.627
-160.028
-163.261
-162.903
-158.218
-148.238
-131.621
-106.429
-70.3719
-21.3311
40.4318
106.188
155.751
165.579
-56.4994
-57.118
-53.46
-47.4132
-41.176
-36.3703
-33.9084
-34.1356
-37.156
-42.8761
-51.0687
-61.3986
-73.431
-86.6381
-100.411
-114.081
-126.951
-138.328
-147.554
-154.033
-157.221
-156.601
-151.361
-140.016
-120.794
-91.154
-47.9171
11.9016
88.9298
177.474
255.003
285.155
-69.4382
-69.1798
-61.8756
-51.5317
-41.5201
-33.8245
-29.3272
-28.1956
-30.3659
-35.6005
-43.5585
-53.8199
-65.8893
-79.1978
-93.1108
-106.944
-119.986
-131.527
-140.879
-147.385
-150.406
-149.275
-143.159
-129.892
-107.076
-71.3584
-18.3754
56.4776
155.9
275.657
395.624
462.724
-91.5276
-87.3104
-72.5929
-55.4706
-40.52
-29.5772
-23.0613
-20.7564
-22.3145
-27.296
-35.2233
-45.5846
-57.8242
-71.3353
-85.4605
-99.5019
-112.738
-124.439
-133.882
-140.343
-143.068
-141.211
-133.717
-117.97
-90.5855
-47.2331
17.9181
111.681
240.159
404.055
585.692
718.57
-135.071
-115.742
-85.4413
-57.8463
-36.9484
-22.7729
-14.5839
-11.5643
-12.9399
-18.0252
-26.1999
-36.8681
-49.4251
-63.2369
-77.6326
-91.9079
-105.335
-117.169
-126.65
-132.985
-135.291
-132.509
-123.241
-104.431
-71.7547
-19.8185
58.8505
173.894
336.739
558.161
833.672
1076.8
-228.388
-153.86
-93.4657
-52.3383
-26.0089
-10.1398
-1.85971
0.631661
-1.47594
-7.32081
-16.2065
-27.5054
-40.6029
-54.8658
-69.6307
-84.2016
-97.8548
-109.839
-119.367
-125.576
-127.464
-123.746
-112.647
-90.6174
-52.9052
6.80692
97.4702
231.769
428.475
717.815
1144.29
1657.5
-459.945
-165.663
-61.8539
-18.4762
2.90545
13.7612
18.0642
17.5315
13.1169
5.48744
-4.79834
-17.2091
-31.1989
-46.1869
-61.5495
-76.6215
-90.6999
-103.041
-112.848
-119.224
-121.089
-117.012
-104.884
-81.1573
-40.9932
22.3242
118.436
261.882
477.468
817.995
1426.15
2675.13
VECTORS velocity double
8.33155e-05 -8.33155e-05 0
0.000170203 -3.5717e-06 0
3.63836e-05 0.000137391 0
-0.000367569 0.000266562 0
-0.00100009 0.000365958 0
-0.00180473 0.000438681 0
-0.00273567 0.000492266 0
-0.0037599 0.00053196 0
-0.00485093 0.000559065 0
-0.00598151 0.000571516 0
-0.00711821 0.000565183 0
-0.00821857 0.000535183 0
-0.00923077 0.000477015 0
-0.0100953 0.000387502 0
-0.0107484 0.000265631 0
-0.0111273 0.000113271 0
-0.0111763 -6.43435e-05 0
-0.0108533 -0.000258627 0
-0.0101392 -0.000455483 0
-0.00904665 -0.000637047 0
-0.00762605 -0.000783551 0
-0.00596655 -0.000875945 0
-0.00419144 -0.000899163 0
-0.00244677 -0.000845508 0
-0.000883897 -0.000717368 0
0.000361884 -0.000528413 0
0.00119316 -0.000302859 0
0.00156729 -7.12724e-05 0
0.00150742 0.00013114 0
0.00111086 0.000265423 0
0.000560942 0.00028449 0
0.000138226 0.000138225 0
3.0505e-08 -0.000166662 0
-0.000248335 0.000241252 0
-0.00105578 0.000833828 0
-0.00245856 0.00137686 0
-0.00437572 0.00180533 0
-0.00669699 0.00212522 0
-0.00932007 0.00235975 0
-0.0121567 0.00252529 0
-0.0151245 0.00262463 0
-0.0181367 0.00264869 0
-0.0210933 0.00258136 0
-0.0238786 0.00240465 0
-0.0263621 0.00210318 0
-0.0284041 0.00166788 0
-0.0298647 0.00109904 0
-0.0306148 0.000408807 0
-0.0305484 -0.000377351 0
-0.0295974 -0.00121953 0
-0.027746 -0.0020601 0
-0.0250425 -0.00282849 0
-0.0216073 -0.00344787 0
-0.0176339 -0.00384454 0
-0.0133801 -0.00395945 0
-0.00914948 -0.00376056 0
-0.00526104 -0.00325364 0
-0.00201055 -0.00248841 0
0.00037297 -0.00155765 0
0.00176999 -0.000587631 0
0.00220185 0.000275503 0
0.00184678 0.000872689 0
0.00104343 0.00103049 0
0.000290965 0.000567415 0
-0.000181213 1.45213e-05 0
-0.00100617 0.00113339 0
-0.002746 0.00248897 0
-0.0053261 0.0037046 0
-0.00860253 0.00467117 0
-0.0124204 0.00539848 0
-0.0166365 0.0059257 0
-0.0211193 0.00627873 0
-0.0257382 0.00645803 0
-0.0303533 0.00644246 0
-0.0348081 0.00619911 0
-0.0389298 0.0056939 0
-0.0425332 0.00490071 0
-0.0454295 0.0038087 0
-0.0474386 0.00242792 0
-0.048402 0.000793414 0
-0.0481981 -0.0010323 0
-0.0467565 -0.00295708 0
-0.0440719 -0.0048586 0
-0.0402148 -0.00659056 0
-0.0353408 -0.00799495 0
-0.0296925 -0.00891925 0
-0.0235929 -0.00923808 0
-0.0174281 -0.00887743 0
-0.0116154 -0.00783783 0
-0.00655926 -0.00621091 0
-0.00259479 -0.00418314 0
6.95943e-05 -0.00202355 0
0.00140448 -5.53263e-05 0
0.00159131 0.00137176 0
0.00102419 0.00190189 0
0.000307145 0.00116552 0
-0.000400713 0.000596448 0
-0.00191497 0.00289067 0
-0.00473224 0.0052888 0
-0.00860457 0.0073572 0
-0.0132954 0.00898583 0
-0.0185988 0.0102051 0
-0.0243363 0.0110727 0
-0.0303421 0.0116203 0
-0.0364481 0.0118414 0
-0.0424735 0.0116995 0
-0.0482206 0.0111441 0
-0.0534776 0.0101276 0
-0.0580256 0.00861841 0
-0.0616498 0.00661153 0
-0.0641514 0.00413579 0
-0.0653613 0.00125882 0
-0.0651528 -0.00191016 0
-0.0634534 -0.00522014 0
-0.0602548 -0.00847883 0
-0.0556248 -0.0114573 0
-0.04972 -0.013907 0
-0.0427923 -0.0155833 0
-0.0351884 -0.0162775 0
-0.0273383 -0.0158531 0
-0.0197278 -0.0142853 0
-0.0128537 -0.0116937 0
-0.00716012 -0.00835841 0
-0.00296392 -0.00470886 0
-0.000384832 -0.00128398 0
0.000704685 0.00132407 0
0.000698571 0.00252281 0
0.000243774 0.00171644 0
-0.000635026 0.00163219 0
-0.0028853 0.00561945 0
-0.006842 0.00933399 0
-0.0120521 0.0123944 0
-0.018168 0.0147554 0
-0.0249273 0.0164983 0
-0.0321187 0.0177083 0
-0.0395506 0.0184224 0
-0.0470289 0.0186238 0
-0.054346 0.0182596 0
-0.0612786 0.0172637 0
-0.0675929 0.0155792 0
-0.0730529 0.0131748 0
-0.0774309 0.0100574 0
-0.0805194 0.00628003 0
-0.0821416 0.00194656 0
-0.0821618 -0.00278615 0
-0.0804923 -0.007713 0
-0.0771007 -0.0125762 0
-0.0720259 -0.0170647 0
-0.065396 -0.0208342 0
-0.0574429 -0.0235369 0
-0.0485096 -0.0248611 0
-0.039048 -0.0245811 0
-0.0296005 -0.0226152 0
-0.0207573 -0.019081 0
-0.0130885 -0.0143335 0
-0.00705293 -0.0089656 0
-0.00290123 -0.00375804 0
-0.000601485 0.000408861 0
0.00019584 0.0026468 0
0.000141433 0.00210165 0
-0.000872114 0.00313933 0
-0.00386399 0.00935445 0
-0.00895974 0.0146515 0
-0.0154914 0.0188187 0
-0.0229956 0.0219511 0
-0.0311532 0.0242194 0
-0.0397246 0.0257501 0
-0.0485005 0.0265884 0
-0.057272 0.0267076 0
-0.0658182 0.0260389 0
-0.0739042 0.0245031 0
-0.0812871 0.0220371 0
-0.0877237 0.0186134 0
-0.0929795 0.0142527 0
-0.0968382 0.00903193 0
-0.0991096 0.00308821 0
-0.0996372 -0.00337994 0
-0.0983022 -0.0101237 0
-0.0950291 -0.0168302 0
-0.0898058 -0.0231089 0
-0.0827089 -0.0285167 0
-0.0739264 -0.0325901 0
-0.0637753 -0.0348923 0
-0.0527113 -0.0350754 0
-0.041322 -0.0329578 0
-0.0302942 -0.0286094 0
-0.0203451 -0.0224229 0
-0.0121156 -0.0151412 0
-0.00604054 -0.00780918 0
-0.00223274 -0.00164755 0
-0.000424117 0.00209727 0
1.91969e-05 0.00226228 0
-0.00110218 0.00511362 0
-0.00480825 0.0140781 0
-0.0109919 0.0212072 0
-0.0187764 0.0265792 0
-0.0275881 0.0305066 0
-0.0370566 0.03329 0
-0.0469207 0.0351149 0
-0.0569613 0.0360402 0
-0.0669652 0.0360313 0
-0.076709 0.0350052 0
-0.0859573 0.0328711 0
-0.0944662 0.0295609 0
-0.10199 0.0250499 0
-0.108288 0.0193697 0
-0.11313 0.0126153 0
-0.116302 0.00494887 0
-0.117616 -0.00339928 0
-0.116909 -0.0121464 0
-0.114051 -0.0209384 0
-0.108964 -0.0293112 0
-0.101655 -0.0367203 0
-0.0922479 -0.042576 0
-0.081011 -0.0462944 0
-0.0683798 -0.0473685 0
-0.0549683 -0.0454656 0
-0.0415523 -0.0405455 0
-0.0290102 -0.0329781 0
-0.0182058 -0.0236199 0
-0.00982143 -0.01379 0
-0.00418299 -0.00511297 0
-0.0011508 0.000721884 0
-0.000118967 0.00216251 0
-0.00131498 0.00753078 0
-0.00567668 0.0197287 0
-0.0128522 0.0289158 0
-0.0217746 0.0355774 0
-0.0317728 0.0403183 0
-0.0424342 0.0436082 0
-0.0534826 0.0457091 0
-0.0646973 0.0467014 0
-0.0758689 0.0465456 0
-0.0867803 0.0451461 0
-0.0972021 0.0424003 0
-0.106894 0.038233 0
-0.115611 0.0326179 0
-0.123101 0.0255897 0
-0.129116 0.017252 0
-0.133412 0.0077813 0
-0.135758 -0.00257149 0
-0.135945 -0.0134945 0
-0.133783 -0.0246105 0
-0.12912 -0.0353895 0
-0.121882 -0.0451882 0
-0.112112 -0.0532854 0
-0.100002 -0.058932 0
-0.0859366 -0.0614275 0
-0.070523 -0.0602317 0
-0.0546013 -0.0551171 0
-0.0392068 -0.0463432 0
-0.0254568 -0.034809 0
-0.0143501 -0.022092 0
-0.00651429 -0.0102852 0
-0.00200768 -0.00164465 0
-0.000277008 0.00176654 0
-0.00149957 0.0103453 0
-0.00642752 0.0262038 0
-0.0144575 0.0376462 0
-0.0243609 0.0456727 0
-0.0353866 0.0512469 0
-0.0470888 0.0550432 0
-0.0591837 0.0574173 0
-0.0714547 0.0584789 0
-0.0837023 0.0581873 0
-0.0957212 0.0564347 0
-0.107293 0.053105 0
-0.118184 0.0481114 0
-0.128146 0.0414181 0
-0.13692 0.0330534 0
-0.144235 0.0231183 0
-0.149816 0.011792 0
-0.153387 -0.000663917 0
-0.154692 -0.0139108 0
-0.153485 -0.0275636 0
-0.149543 -0.0410413 0
-0.142706 -0.0536111 0
-0.132915 -0.0644236 0
-0.120262 -0.0725568 0
-0.105041 -0.0770892 0
-0.0878057 -0.077219 0
-0.0694132 -0.0724439 0
-0.0510257 -0.0627985 0
-0.0340215 -0.0491078 0
-0.0197774 -0.033144 0
-0.00933023 -0.0175162 0
-0.00304278 -0.00520775 0
-0.000466668 0.00102286 0
-0.00164486 0.0134898 0
-0.00701995 0.0333624 0
-0.0157285 0.0472262 0
-0.0264176 0.0566852 0
-0.0382741 0.0631167 0
-0.0508285 0.06743 0
-0.0637936 0.0700903 0
-0.076961 0.0712443 0
-0.0901448 0.0708534 0
-0.103155 0.0687976 0
-0.115786 0.0649447 0
-0.127813 0.0591897 0
-0.13899 0.0514791 0
-0.149048 0.0418245 0
-0.157699 0.0303133 0
-0.164639 0.0171175 0
-0.169558 0.00250075 0
-0.172151 -0.0131767 0
-0.172129 -0.0295269 0
-0.169208 -0.0459412 0
-0.163139 -0.0616172 0
-0.153755 -0.0755924 0
-0.141018 -0.0867778 0
-0.12509 -0.094018 0
-0.106411 -0.0962048 0
-0.0857886 -0.0924728 0
-0.0644505 -0.0824952 0
-0.0440086 -0.0668572 0
-0.0262563 -0.047391 0
-0.0127546 -0.027218 0
-0.00431828 -0.0102297 0
-0.000702892 -0.000146702 0
-0.00174062 0.0168752 0
-0.00741679 0.0410282 0
-0.016594 0.0574462 0
-0.0278382 0.0683983 0
-0.0402932 0.0757152 0
-0.053472 0.0805647 0
-0.0670865 0.0835353 0
-0.080938 0.0848183 0
-0.0948556 0.0843807 0
-0.108666 0.0820907 0
-0.122179 0.0777959 0
-0.135182 0.0713684 0
-0.147434 0.0627289 0
-0.158664 0.0518637 0
-0.168577 0.0388376 0
-0.17685 0.0238063 0
-0.183147 0.00702792 0
-0.18713 -0.011127 0
-0.188476 -0.0302534 0
-0.186858 -0.0497532 0
-0.18195 -0.0687825 0
-0.173467 -0.0862946 0
-0.161222 -0.101057 0
-0.145202 -0.111688 0
-0.12567 -0.116745 0
-0.1033 -0.114924 0
-0.0792922 -0.10539 0
-0.0554219 -0.088275 0
-0.0338967 -0.0652507 0
-0.0169057 -0.039851 0
-0.00590063 -0.0170381 0
-0.00100238 -0.00185197 0
-0.00177851 0.0203944 0
-0.00758796 0.0489947 0
-0.0169958 0.0680648 0
-0.028535 0.0805631 0
-0.0413239 0.0887944 0
-0.0548618 0.0942021 0
-0.0688595 0.0975101 0
-0.0831267 0.0989622 0
-0.0975071 0.0985348 0
-0.111845 0.0960846 0
-0.125968 0.091438 0
-0.139678 0.0844396 0
-0.152748 0.0749796 0
-0.164918 0.0630133 0
-0.175894 0.0485766 0
-0.185356 0.0318019 0
-0.192959 0.0129332 0
-0.198347 -0.00766173 0
-0.20118 -0.0295401 0
-0.201109 -0.0521546 0
-0.197742 -0.0746569 0
-0.190686 -0.095959 0
-0.179595 -0.114729 0
-0.164243 -0.129388 0
-0.144653 -0.138166 0
-0.121269 -0.139259 0
-0.0951461 -0.131185 0
-0.0681109 -0.113385 0
-0.0427255 -0.0870516 0
-0.0218736 -0.0558931 0
-0.00785243 -0.0260222 0
-0.00138208 -0.00423643 0
-0.00175329 0.0239262 0
-0.00751409 0.0570331 0
-0.0168958 0.0788159 0
-0.0284482 0.0929036 0
-0.0412806 0.102075 0
-0.0548805 0.108059 0
-0.0689547 0.111725 0
-0.0833179 0.113378 0
-0.0978267 0.113008 0
-0.112343 0.110465 0
-0.126714 0.105552 0
-0.140763 0.098086 0
-0.154286 0.0879259 0
-0.167043 0.0749935 0
-0.178763 0.0592931 0
-0.189147 0.0409299 0
-0.197865 0.0201268 0
-0.204572 -0.00276084 0
-0.208926 -0.0272533 0
-0.210568 -0.0528704 0
-0.209073 -0.0788037 0
-0.203959 -0.103982 0
-0.194719 -0.127037 0
-0.180894 -0.146257 0
-0.162207 -0.159573 0
-0.138777 -0.164667 0
-0.111382 -0.159294 0
-0.0817429 -0.14195 0
-0.0526554 -0.112959 0
-0.0277011 -0.0757914 0
-0.0102264 -0.0376197 0
-0.00185857 -0.00747708 0
-0.00166376 0.0273432 0
-0.00718984 0.064903 0
-0.0162811 0.0894191 0
-0.0275543 0.105126 0
-0.0401248 0.115256 0
-0.0534683 0.121822 0
-0.0672828 0.125851 0
-0.081384 0.127717 0
-0.0956382 0.127433 0
-0.109924 0.124842 0
-0.124112 0.119733 0
-0.138052 0.111895 0
-0.151571 0.101158 0
-0.164466 0.0874131 0
-0.176506 0.0706345 0
-0.187434 0.0508994 0
-0.196964 0.0284057 0
-0.204786 0.00348942 0
-0.210575 -0.0233608 0
-0.213985 -0.0517108 0
-0.214598 -0.0808455 0
-0.211872 -0.10978 0
-0.205157 -0.137194 0
-0.193751 -0.16133 0
-0.177039 -0.179898 0
-0.154723 -0.190089 0
-0.127167 -0.188824 0
-0.095801 -0.173425 0
-0.0634689 -0.142904 0
-0.0343691 -0.0999008 0
-0.0130597 -0.0522944 0
-0.00244717 -0.0117828 0
-0.00151344 0.0305204 0
-0.00662643 0.0723648 0
-0.0151696 0.0995916 0
-0.0258738 0.116931 0
-0.0378751 0.128023 0
-0.0506367 0.13516 0
-0.0638425 0.139533 0
-0.0773038 0.141597 0
-0.0908938 0.141396 0
-0.104508 0.138778 0
-0.11804 0.133517 0
-0.131374 0.125385 0
-0.144376 0.114188 0
-0.156891 0.0997929 0
-0.168747 0.0821504 0
-0.179748 0.0613129 0
-0.189678 0.0374525 0
-0.19829 0.0108766 0
-0.205295 -0.0179546 0
-0.210397 -0.048605 0
-0.213223 -0.0805125 0
-0.21321 -0.112851 0
-0.209599 -0.144449 0
-0.201463 -0.173618 0
-0.187826 -0.19796 0
-0.167908 -0.21426 0
-0.141521 -0.218597 0
-0.109607 -0.206932 0
-0.0748173 -0.176519 0
-0.0417882 -0.128415 0
-0.0163706 -0.0705068 0
-0.00316178 -0.0173918 0
-0.00131092 0.0333448 0
-0.00585297 0.0791955 0
-0.0136126 0.109064 0
-0.0234761 0.128027 0
-0.0346144 0.140066 0
-0.0464778 0.147741 0
-0.0587313 0.152411 0
-0.0711772 0.154626 0
-0.0836927 0.154473 0
-0.0961891 0.151812 0
-0.108588 0.146415 0
-0.120809 0.138043 0
-0.132764 0.126487 0
-0.144355 0.111601 0
-0.155478 0.0933206 0
-0.166017 0.0716833 0
-0.175843 0.046839 0
-0.184802 0.0190606 0
-0.192689 -0.0112466 0
-0.199279 -0.0436214 0
-0.204265 -0.0776846 0
-0.207118 -0.112838 0
-0.207025 -0.148165 0
-0.202876 -0.182187 0
-0.193347 -0.212557 0
-0.177136 -0.235792 0
-0.153392 -0.247195 0
-0.122367 -0.241272 0
-0.0862365 -0.213099 0
-0.0497984 -0.161302 0
-0.0201567 -0.0926795 0
-0.00401558 -0.0245691 0
-0.00106966 0.0357254 0
-0.00491648 0.0852038 0
-0.0116959 0.117594 0
-0.0204814 0.138145 0
-0.0304917 0.151097 0
-0.0411661 0.159249 0
-0.0521477 0.164138 0
-0.063226 0.166423 0
-0.0742811 0.166247 0
-0.0852412 0.163495 0
-0.096057 0.157947 0
-0.106687 0.149362 0
-0.117094 0.137529 0
-0.127242 0.122297 0
-0.137098 0.103602 0
-0.146632 0.0814757 0
-0.155818 0.0560588 0
-0.164614 0.0275961 0
-0.172944 -0.00356502 0
-0.180676 -0.0369818 0
-0.187587 -0.0724273 0
-0.193243 -0.109586 0
-0.196849 -0.147904 0
-0.197181 -0.186266 0
-0.192617 -0.222571 0
-0.181337 -0.25327 0
-0.161749 -0.273049 0
-0.13323 -0.274963 0
-0.0971762 -0.251594 0
-0.0581768 -0.198245 0
-0.0243981 -0.119157 0
-0.00502321 -0.0336079 0
-0.000807475 0.0376025 0
-0.0038808 0.0902468 0
-0.00953854 0.124988 0
-0.0170591 0.147057 0
-0.0257204 0.160856 0
-0.0349547 0.169398 0
-0.044383 0.174399 0
-0.0537823 0.17664 0
-0.0630358 0.176338 0
-0.0720911 0.173419 0
-0.0809311 0.167679 0
-0.0895582 0.158888 0
-0.0979873 0.14684 0
-0.106244 0.131392 0
-0.11437 0.112488 0
-0.122419 0.0901736 0
-0.130467 0.0645942 0
-0.138594 0.0359837 0
-0.14686 0.00464377 0
-0.155256 -0.0290635 0
-0.163681 -0.0650088 0
-0.171842 -0.103187 0
-0.179043 -0.143496 0
-0.184042 -0.185343 0
-0.185014 -0.227086 0
-0.179674 -0.265376 0
-0.165669 -0.294535 0
-0.141354 -0.30631 0
-0.107037 -0.290617 0
-0.0666528 -0.238605 0
-0.0290651 -0.150163 0
-0.00620537 -0.0448365 0
-0.000545766 0.0389557 0
-0.00282478 0.0942459 0
-0.00729105 0.131113 0
-0.0134256 0.154587 0
-0.020573 0.169135 0
-0.0281658 0.177947 0
-0.0358077 0.182921 0
-0.0432668 0.184976 0
-0.050434 0.184422 0
-0.0572808 0.181237 0
-0.0638272 0.175248 0
-0.0701235 0.166243 0
-0.0762402 0.154031 0
-0.0822661 0.138484 0
-0.0883101 0.119565 0
-0.0945057 0.0973419 0
-0.101015 0.071983 0
-0.108026 0.0437327 0
-0.11573 0.0128653 0
-0.124258 -0.0203614 0
-0.133659 -0.0558844 0
-0.143813 -0.0939972 0
-0.154198 -0.1351 0
-0.163681 -0.179256 0
-0.17037 -0.225512 0
-0.171636 -0.271024 0
-0.164418 -0.310109 0
-0.145963 -0.333506 0
-0.115207 -0.328494 0
-0.0749248 -0.281395 0
-0.0341294 -0.185756 0
-0.0075954 -0.0586373 0
-0.000308988 0.0398105 0
-0.00184106 0.0972022 0
-0.00513331 0.135916 0
-0.00984054 0.160627 0
-0.0153748 0.175777 0
-0.0211792 0.184702 0
-0.0268517 0.18948 0
-0.0321617 0.191186 0
-0.0370163 0.190235 0
-0.0414185 0.186673 0
-0.0454325 0.180371 0
-0.0491611 0.171144 0
-0.052734 0.158819 0
-0.0563033 0.14329 0
-0.0600432 0.124542 0
-0.0641532 0.10267 0
-0.0688643 0.077875 0
-0.0744422 0.0504296 0
-0.0811786 0.020609 0
-0.0893487 -0.011407 0
-0.0991485 -0.0456379 0
-0.110629 -0.0826099 0
-0.123512 -0.123219 0
-0.136899 -0.168267 0
-0.149019 -0.217693 0
-0.157096 -0.269501 0
-0.157501 -0.318446 0
-0.146383 -0.354742 0
-0.12108 -0.363316 0
-0.0826695 -0.325266 0
-0.0395737 -0.225776 0
-0.00924609 -0.0754787 0
-0.000124818 0.0402443 0
-0.00103678 0.0992125 0
-0.00327573 0.139437 0
-0.00660644 0.165144 0
-0.0104985 0.180686 0
-0.0144204 0.189519 0
-0.0179853 0.193901 0
-0.0209815 0.195071 0
-0.0233474 0.19357 0
-0.025129 0.189522 0
-0.0264425 0.18285 0
-0.0274485 0.1734 0
-0.0283393 0.161027 0
-0.0293316 0.145645 0
-0.0306631 0.12726 0
-0.0325929 0.105993 0
-0.0354043 0.082075 0
-0.0394099 0.0558131 0
-0.0449552 0.0275073 0
-0.0524064 -0.00268409 0
-0.062075 -0.0348924 0
-0.0741654 -0.0697845 0
-0.0886599 -0.108668 0
-0.105012 -0.153079 0
-0.121781 -0.203992 0
-0.136313 -0.260592 0
-0.144673 -0.318591 0
-0.142049 -0.368339 0
-0.124053 -0.393017 0
-0.0895305 -0.368499 0
-0.0453888 -0.269781 0
-0.0112328 -0.0959576 0
-2.61121e-05 0.0403952 0
-0.000539283 0.100487 0
-0.00196594 0.141828 0
-0.00407178 0.168189 0
-0.0063609 0.183822 0
-0.00834912 0.192293 0
-0.00969747 0.19604 0
-0.0102429 0.196474 0
-0.00997715 0.194267 0
-0.00900524 0.189634 0
-0.00750458 0.18255 0
-0.00569871 0.172899 0
-0.00384481 0.160564 0
-0.00222512 0.14548 0
-0.00114025 0.127671 0
-0.000905397 0.107276 0
-0.00184753 0.084545 0
-0.00430417 0.0598053 0
-0.00862631 0.0333826 0
-0.0151846 0.00545004 0
-0.0243387 -0.0242038 0
-0.0363933 -0.0563281 0
-0.0515504 -0.0924723 0
-0.0696744 -0.134798 0
-0.0898515 -0.185328 0
-0.109882 -0.244693 0
-0.125906 -0.310106 0
-0.132464 -0.37289 0
-0.123473 -0.415452 0
-0.095069 -0.40899 0
-0.051545 -0.316955 0
-0.0136468 -0.120837 0
-5.63852e-05 0.0404777 0
-0.000510906 0.101372 0
-0.00150591 0.143364 0
-0.00264149 0.169894 0
-0.00342208 0.185187 0
-0.00344573 0.19294 0
-0.00247218 0.195768 0
-0.000429894 0.19525 0
0.00260437 0.192192 0
0.00644654 0.186896 0
0.0108444 0.179391 0
0.0155016 0.169596 0
0.020093 0.157422 0
0.0242739 0.142821 0
0.0276863 0.125832 0
0.0299676 0.106599 0
0.0307602 0.0853717 0
0.0297218 0.0624736 0
0.0265332 0.0382251 0
0.0208951 0.0128039 0
0.0124923 -0.0140008 0
0.000992029 -0.0429763 0
-0.0139564 -0.0757186 0
-0.0325786 -0.114805 0
-0.0546015 -0.16312 0
-0.0786059 -0.222866 0
-0.101305 -0.29321 0
-0.117114 -0.367419 0
-0.118534 -0.428495 0
-0.0986597 -0.444225 0
-0.0579212 -0.365983 0
-0.0165724 -0.151056 0
-0.000281972 0.0408161 0
-0.00117973 0.102386 0
-0.00228426 0.14445 0
-0.00279427 0.170454 0
-0.00218197 0.184795 0
-0.000187764 0.191361 0
0.00325712 0.192928 0
0.00806415 0.19124 0
0.0140201 0.187211 0
0.0208402 0.181214 0
0.0281911 0.173324 0
0.0357074 0.16349 0
0.0430032 0.151641 0
0.0496806 0.137744 0
0.055337 0.121841 0
0.0595764 0.10407 0
0.0620238 0.0846611 0
0.0623409 0.0639055 0
0.0602392 0.0420834 0
0.0554802 0.0193428 0
0.0478433 -0.00450004 0
0.0370906 -0.0302241 0
0.0229379 -0.0593697 0
0.00496571 -0.0945598 0
-0.0172414 -0.139136 0
-0.043282 -0.196805 0
-0.0709643 -0.268889 0
-0.0953381 -0.351556 0
-0.108117 -0.430159 0
-0.0993124 -0.471239 0
-0.0641686 -0.414852 0
-0.0200383 -0.187667 0
-0.000816157 0.0419142 0
-0.00289468 0.104264 0
-0.00482448 0.145606 0
-0.00509837 0.170082 0
-0.00316272 0.18262 0
0.000987118 0.187393 0
0.00712509 0.187314 0
0.0149205 0.184252 0
0.0239852 0.179178 0
0.0339129 0.172499 0
0.0442864 0.164314 0
0.05468 0.154589 0
0.0646624 0.143263 0
0.0738007 0.130306 0
0.0816687 0.115754 0
0.0878583 0.0997272 0
0.0919963 0.0824183 0
0.0937623 0.0640652 0
0.0929029 0.0448848 0
0.0892332 0.0249702 0
0.0826111 0.00413168 0
0.0728632 -0.0183552 0
0.0597326 -0.0439553 0
0.0428322 -0.0751017 0
0.0216521 -0.115207 0
-0.00437262 -0.168669 0
-0.0347819 -0.238934 0
-0.0661738 -0.325746 0
-0.0905763 -0.418789 0
-0.0954014 -0.486589 0
-0.069483 -0.460564 0
-0.0239314 -0.231637 0
-0.00186244 0.0445928 0
-0.00620798 0.108009 0
-0.00982754 0.14741 0
-0.0101839 0.168908 0
-0.00682894 0.178503 0
-0.000216461 0.180747 0
0.00897571 0.178629 0
0.020086 0.174031 0
0.0325167 0.167904 0
0.045732 0.160631 0
0.0592403 0.152301 0
0.0725742 0.142875 0
0.0852799 0.132289 0
0.0969159 0.120506 0
0.107058 0.107545 0
0.115312 0.0934938 0
0.121327 0.0784989 0
0.124814 0.0627316 0
0.125557 0.0463341 0
0.123415 0.0293329 0
0.118292 0.011514 0
0.110074 -0.00777145 0
0.0985182 -0.029853 0
0.0832137 -0.0569992 0
0.063548 -0.0924631 0
0.0386739 -0.140514 0
0.00782637 -0.205832 0
-0.028184 -0.291445 0
-0.0635013 -0.39337 0
-0.0842889 -0.486395 0
-0.0722375 -0.498727 0
-0.0278471 -0.283415 0
-0.00377981 0.0502351 0
-0.0119526 0.114885 0
-0.018105 0.150306 0
-0.0185129 0.166776 0
-0.013239 0.172005 0
-0.00352517 0.170918 0
0.00932656 0.166414 0
0.0242518 0.16021 0
0.0404289 0.153117 0
0.0572112 0.14542 0
0.0740604 0.137154 0
0.0904981 0.128251 0
0.10608 0.118627 0
0.120386 0.108226 0
0.133023 0.0970445 0
0.143633 0.0851295 0
0.151909 0.0725722 0
0.157605 0.0594763 0
0.160541 0.0459099 0
0.160604 0.0318362 0
0.157722 0.0170156 0
0.151803 0.000864225 0
0.142607 -0.0177377 0
0.129676 -0.0408784 0
0.112259 -0.071501 0
0.0891997 -0.113543 0
0.0590384 -0.171794 0
0.0207709 -0.251205 0
-0.0234974 -0.354024 0
-0.0618449 -0.466605 0
-0.0693961 -0.523017 0
-0.0308248 -0.342087 0
-0.00713723 0.0611521 0
-0.0211354 0.126139 0
-0.0300377 0.154107 0
-0.0294753 0.162821 0
-0.0209126 0.162124 0
-0.00682788 0.157001 0
0.0107193 0.149932 0
0.0302596 0.142226 0
0.0507914 0.134392 0
0.0716161 0.126538 0
0.092201 0.118602 0
0.112101 0.110465 0
0.130917 0.102014 0
0.148283 0.0931667 0
0.163864 0.0838864 0
0.177361 0.0741804 0
0.18852 0.0640864 0
0.19714 0.0536467 0
0.203075 0.0428682 0
0.206222 0.0316672 0
0.206496 0.019793 0
0.203776 0.00672536 0
0.19784 -0.0084664 0
0.188173 -0.0275516 0
0.173822 -0.0530592 0
0.153286 -0.0883899 0
0.12446 -0.13796 0
0.0849953 -0.207307 0
0.0339604 -0.302619 0
-0.0219031 -0.4238 0
-0.0555519 -0.524623 0
-0.0308464 -0.403758 0
-0.0125451 0.0808344 0
-0.033895 0.141805 0
-0.0433168 0.156765 0
-0.0383368 0.154621 0
-0.0233453 0.146771 0
-0.00244771 0.137372 0
0.0215885 0.127978 0
0.0470542 0.119175 0
0.0729376 0.111028 0
0.0986032 0.103412 0
0.123603 0.0961437 0
0.147579 0.0890469 0
0.170223 0.0819726 0
0.191252 0.0748129 0
0.210409 0.067502 0
0.227467 0.0600107 0
0.242231 0.0523335 0
0.254544 0.0444664 0
0.26428 0.0363764 0
0.271334 0.0279582 0
0.275586 0.018976 0
0.276865 0.00898328 0
0.274874 -0.00279629 0
0.269021 -0.0177029 0
0.258179 -0.0377139 0
0.24049 -0.0655101 0
0.213247 -0.104771 0
0.172982 -0.160767 0
0.116366 -0.241508 0
0.0443084 -0.35699 0
-0.0213053 -0.492169 0
-0.0238088 -0.458414 0