# vtk DataFile Version 2.0
Lid-driven cavity
ASCII
DATASET STRUCTURED_POINTS
DIMENSIONS 32 32 1
ORIGIN 0.015625 0.015625 0
SPACING 0.03125 0.03125 1
POINT_DATA 1024
SCALARS pressure double 1
LOOKUP_TABLE default
27.0396
26.9153
26.7079
26.4873
26.2945
26.1493
26.0609
26.0354
26.0797
26.2023
26.4132
26.7216
27.1337
27.6504
28.2653
28.9623
29.7152
30.4886
31.2368
31.9082
32.4514
32.8226
32.9937
32.9576
32.7321
32.3581
31.8935
31.406
30.9642
30.629
30.4464
30.4287
27.1638
27.0345
26.8632
26.6894
26.5386
26.4252
26.3574
26.342
26.3861
26.4983
26.6879
26.9635
27.3313
27.7926
28.342
28.9659
29.6409
30.3362
31.0102
31.6159
32.1065
32.4424
32.5987
32.5706
32.3759
32.0531
31.6555
31.2416
30.8683
30.5838
30.4242
30.4109
27.3785
27.1953
27.0179
26.8607
26.7324
26.6378
26.5802
26.5643
26.5969
26.6866
26.8436
27.0777
27.3967
27.8044
28.2985
28.8682
29.4936
30.1459
30.7852
31.3651
31.8385
32.1651
32.3189
32.2943
32.1089
31.8012
31.424
31.034
30.6826
30.4119
30.2531
30.2308
27.6048
27.3461
27.1397
26.9789
26.856
26.7651
26.7035
26.6728
26.6789
26.7311
26.8413
27.022
27.2843
27.6362
28.0796
28.6079
29.2046
29.8414
30.4785
31.0675
31.5581
31.9051
32.0776
32.0659
31.8854
31.5748
31.1886
30.7858
30.4191
30.1285
29.9437
29.8875
27.772
27.431
27.1849
27.0072
26.8749
26.7718
26.6891
26.6256
26.5863
26.5821
26.6272
26.7381
26.9307
27.2184
27.6087
28.1005
28.6815
29.3233
29.986
30.6185
31.1644
31.5703
31.7962
31.8236
31.6621
31.3483
30.9388
30.4982
30.085
29.7436
29.5055
29.3933
27.8144
27.3916
27.1018
26.8982
26.7433
26.6114
26.4883
26.3704
26.263
26.1785
26.1348
26.1531
26.2554
26.4619
26.7869
27.2363
27.8041
28.4634
29.1757
29.8869
30.5331
31.0493
31.381
31.495
31.3884
31.0911
30.6602
30.1672
29.6822
29.2609
28.9424
28.7544
27.668
27.1676
26.8333
26.5971
26.407
26.2287
26.0436
25.8465
25.6434
25.449
25.2854
25.1795
25.1605
25.2564
25.4906
25.8777
26.4205
27.0988
27.8782
28.7033
29.502
30.1948
30.7065
30.9808
30.9931
30.7579
30.3276
29.7812
29.2052
28.6757
28.2488
27.9646
27.27
26.6988
26.3205
26.0453
25.8069
25.5632
25.292
24.9871
24.6551
24.3139
23.9899
23.7165
23.5311
23.4716
23.5721
23.8588
24.3457
25.0278
25.8806
26.8507
27.8589
28.8087
29.5984
30.1383
30.3689
30.2762
29.8979
29.3167
28.6405
27.9766
27.4115
27.0057
26.5606
25.9269
25.5054
25.1841
24.8832
24.5532
24.1686
23.7223
23.2221
22.6883
22.1523
21.6543
21.241
20.962
20.865
20.991
21.3688
22.0159
22.9297
24.0645
25.3373
26.6344
27.8221
28.7665
29.3575
29.5333
29.2995
28.7326
27.9636
27.1438
26.407
25.8485
25.4855
24.7995
24.3352
23.9596
23.5801
23.1403
22.6117
21.9858
21.271
20.4898
19.6782
18.8836
18.1631
17.5799
17.1987
17.0795
17.27
17.8134
18.7488
20.0463
21.6262
23.3602
25.0806
26.5996
27.7384
28.3634
28.4216
27.9635
27.1374
26.1503
25.2064
24.4566
24.0006
23.2735
22.7665
22.3272
21.8512
21.2761
20.5696
19.7215
18.7397
17.6483
16.4869
15.3102
14.1867
13.1952
12.4209
11.9476
11.8495
12.1876
13.0697
14.4956
16.3985
18.6431
21.0302
23.3127
25.2271
26.5401
27.1051
26.9122
26.1081
24.9621
23.7767
22.7885
22.0756
21.3202
20.7701
20.2567
19.6656
18.9282
18.0085
16.8934
15.589
14.1195
12.5274
10.8741
9.24001
7.72155
6.42717
5.46946
4.95444
4.96843
5.68106
7.15869
9.35909
12.1524
15.3171
18.549
21.4898
23.7804
25.1381
25.4434
24.8027
23.5395
22.0843
20.8029
19.6983
18.9281
18.3349
17.7374
17.0129
16.0875
14.9206
13.495
11.8137
9.89927
7.79566
5.57036
3.3153
1.14569
-0.804126
-2.38896
-3.46552
-3.91003
-3.51751
-2.10946
0.310575
3.63497
7.63732
11.9694
16.1797
19.765
22.2637
23.3836
23.1269
21.8393
20.101
18.465
16.877
16.1064
15.471
14.7812
13.9083
12.7733
11.3307
9.55805
7.45347
5.03619
2.35003
-0.532915
-3.50972
-6.44637
-9.18129
-11.5338
-13.3181
-14.3644
-14.4586
-13.2808
-10.7756
-7.00858
-2.18641
3.32409
8.99611
14.1807
18.2035
20.5299
20.9684
19.8186
17.8112
15.7556
13.6418
12.8851
12.2105
11.4245
10.3944
9.03676
7.30069
5.15763
2.59914
-0.360551
-3.67961
-7.28306
-11.0583
-14.8537
-18.4805
-21.7216
-24.3461
-26.1307
-26.8645
-26.1028
-23.6972
-19.6517
-14.1248
-7.46525
-0.23813
6.7841
12.702
16.6747
18.208
17.4437
15.2237
12.6834
10.043
9.31431
8.60661
7.72694
6.54063
4.96054
2.92992
0.413027
-2.60628
-6.12043
-10.0913
-14.443
-19.0552
-23.7604
-28.345
-32.5571
-36.1218
-38.764
-40.2386
-40.0802
-37.9898
-33.8951
-27.8791
-20.2295
-11.495
-2.52087
5.58882
11.6477
14.7437
14.7056
12.3877
9.30275
6.14736
5.45961
4.72916
3.76762
2.43995
0.65537
-1.64904
-4.51713
-7.97384
-12.0196
-16.6216
-21.7046
-27.1429
-32.7559
-38.3081
-43.5169
-48.0676
-51.6368
-53.9256
-54.5084
-52.945
-49.066
-42.8588
-34.5064
-24.4757
-13.6071
-3.14747
5.37311
10.5277
11.6443
9.41634
5.7375
2.03242
1.39624
0.658458
-0.361493
-1.79841
-3.74736
-6.27849
-9.4448
-13.2811
-17.7968
-22.9656
-28.7145
-34.9143
-41.3741
-47.8408
-54.006
-59.5215
-64.0228
-67.1594
-68.5495
-67.6799
-64.277
-58.2174
-49.5471
-38.5852
-26.071
-13.2917
-2.06337
5.61902
8.38606
6.51936
2.21512
-2.22176
-2.79927
-3.52327
-4.56415
-6.05752
-8.10513
-10.7867
-14.166
-18.2891
-23.1751
-28.8048
-35.1086
-41.9552
-49.146
-56.4141
-63.4313
-69.8243
-75.1971
-79.1602
-81.349
-81.2594
-78.5416
-72.9529
-64.3876
-52.9646
-39.2233
-24.3579
-10.3523
0.244572
5.19452
4.04978
-0.883779
-6.5416
-7.05854
-7.74138
-8.74921
-10.2223
-12.2746
-14.9999
-18.4759
-22.7612
-27.8854
-33.8367
-40.5486
-47.8888
-55.6528
-63.5634
-71.278
-78.406
-84.5317
-89.2428
-92.1581
-92.8464
-90.9274
-86.0582
-77.9813
-66.5892
-52.1389
-35.5876
-18.918
-5.13665
2.53781
2.57183
-2.95011
-10.87
-11.3316
-11.9386
-12.8398
-14.1885
-16.1211
-18.7535
-22.1823
-26.4808
-31.6891
-37.8019
-44.7548
-52.4145
-60.5718
-68.9414
-77.1712
-84.8593
-91.5791
-96.9081
-100.452
-101.838
-100.712
-96.6877
-89.3657
-78.417
-63.7661
-46.0032
-26.9113
-9.77964
1.16937
2.9576
-3.0318
-15.1774
-15.5979
-16.0848
-16.7808
-17.869
-19.5254
-21.9009
-25.1176
-29.2658
-34.3955
-40.5051
-47.5301
-55.3348
-63.7054
-72.3511
-80.9131
-88.983
-96.1292
-101.926
-105.979
-107.938
-107.499
-104.294
-97.8202
-87.5521
-73.0724
-54.5096
-33.2478
-12.6222
2.21659
6.51839
0.333644
-19.4746
-19.8792
-20.1857
-20.5445
-21.197
-22.3871
-24.3183
-27.146
-30.9793
-35.8747
-41.8317
-48.784
-56.5889
-65.025
-73.794
-82.5314
-90.8252
-98.2426
-104.36
-108.787
-111.177
-111.254
-108.694
-102.967
-93.3765
-79.1883
-60.022
-36.6864
-12.2888
7.26304
15.1681
9.34862
-23.8329
-24.2574
-24.2936
-24.1324
-24.1249
-24.624
-25.9074
-28.1749
-31.5515
-36.0949
-41.7972
-48.5804
-56.2898
-64.6924
-73.4805
-82.2825
-90.6833
-98.2497
-104.56
-109.229
-111.915
-112.314
-110.088
-104.778
-95.6024
-81.4968
-61.5769
-35.9276
-7.13326
18.403
31.6022
27.2452
-28.4209
-28.9049
-28.52
-27.5762
-26.6196
-26.1686
-26.5994
-28.1502
-30.9553
-35.0631
-40.4477
-47.0101
-54.5766
-62.8977
-71.6533
-80.4638
-88.9097
-96.5563
-102.981
-107.795
-110.654
-111.231
-109.098
-103.711
-94.2556
-79.6282
-58.3788
-29.6903
4.68894
38.2424
59.4581
58.6233
-33.5851
-34.1423
-33.0585
-30.9358
-28.6521
-26.9547
-26.3318
-27.0394
-29.2024
-32.8411
-37.8963
-44.2372
-51.6631
-59.9037
-68.6238
-77.4344
-85.9099
-93.6111
-100.108
-105
-107.921
-108.524
-106.275
-100.45
-90.0673
-73.7172
-49.7713
-16.7284
25.1474
69.8206
103.405
109.82
-40.0363
-40.5564
-38.2212
-34.2951
-30.1868
-26.9176
-25.064
-24.854
-26.3638
-29.5581
-34.3253
-40.4914
-47.8218
-56.0216
-64.7387
-73.5735
-82.0931
-89.8501
-96.4015
-101.322
-104.207
-104.651
-102.078
-95.4456
-83.478
-64.3587
-35.8359
4.20847
56.2865
116.421
169.084
189.301
-49.3028
-49.2301
-44.481
-37.7288
-31.1437
-25.9733
-22.7682
-21.6409
-22.5577
-25.3917
-29.9599
-36.0349
-43.3435
-51.5643
-60.3281
-69.2241
-77.8112
-85.6313
-92.2229
-97.1262
-99.877
-99.9785
-96.8276
-88.985
-74.7358
-51.7196
-16.8699
33.0547
100.01
181.198
262.724
308.09
-64.8622
-62.1057
-52.3924
-41.1247
-31.2538
-23.9151
-19.3506
-17.4112
-17.879
-20.4976
-24.9965
-31.0896
-38.4646
-46.7748
-55.6349
-64.6245
-73.2942
-81.1744
-87.7814
-92.6139
-95.136
-94.7359
-90.656
-81.1916
-63.962
-35.9403
6.93252
69.3968
155.749
266.61
390.018
480.174
-94.9767
-81.9643
-61.7362
-43.4275
-29.5614
-20.049
-14.3401
-11.8846
-12.1888
-14.8351
-19.4595
-25.7203
-33.2724
-41.7497
-50.7568
-59.8674
-68.627
-76.5557
-83.1471
-87.8551
-90.0618
-89.0172
-83.7391
-72.2285
-51.4745
-17.7256
34.1821
110.895
220.311
369.913
556.791
722.236
-158.69
-108.195
-67.5814
-40.1395
-22.6224
-11.968
-6.18957
-4.07694
-4.85927
-8.00198
-13.0908
-19.7627
-27.6652
-36.4319
-45.6707
-54.9596
-63.846
-71.8456
-78.4332
-83.0214
-84.9125
-83.2128
-76.6913
-62.9975
-38.8264
0.189855
60.2084
149.93
282.208
477.689
766.676
1114.91
-316.103
-116.284
-46.199
-17.2585
-3.12961
4.09544
7.1517
7.19345
4.83122
0.466796
-5.57944
-13.0098
-21.5181
-30.7725
-40.4075
-50.0215
-59.1757
-67.3917
-74.1394
-78.8093
-80.6555
-78.6883
-71.4647
-56.5853
-30.7086
10.7945
74.5472
170.508
315.616
545.816
958.03
1805.5
VECTORS velocity double
8.26242e-05 -8.26242e-05 0
0.000167881 -2.63265e-06 0
3.25727e-05 0.000137941 0
-0.00037188 0.000266512 0
-0.00100369 0.000365297 0
-0.00180644 0.000437458 0
-0.00273444 0.000490541 0
-0.00375478 0.000529796 0
-0.00484112 0.00055654 0
-0.00596639 0.00056873 0
-0.00709738 0.000562265 0
-0.00819194 0.000532288 0
-0.00919854 0.000474316 0
-0.010058 0.000385186 0
-0.0107071 0.000263882 0
-0.0110833 0.000112263 0
-0.0111311 -6.44655e-05 0
-0.0108088 -0.000257754 0
-0.0100975 -0.000453589 0
-0.00900969 -0.00063421 0
-0.00759552 -0.000779957 0
-0.00594368 -0.000871887 0
-0.00417678 -0.000895013 0
-0.0024401 -0.00084167 0
-0.000884199 -0.000714227 0
0.000356292 -0.000526264 0
0.00118441 -0.00030185 0
0.00155764 -7.13812e-05 0
0.0014989 0.000130117 0
0.00110492 0.000263862 0
0.000558083 0.000282976 0
0.000137553 0.000137553 0
-9.01258e-07 -0.000164347 0
-0.000250962 0.000243894 0
-0.00105887 0.000834625 0
-0.00245967 0.00137508 0
-0.00437205 0.00180092 0
-0.00668586 0.00211839 0
-0.00929903 0.00235078 0
-0.0121237 0.00251452 0
-0.015078 0.00261247 0
-0.0180756 0.00263567 0
-0.0210174 0.0025681 0
-0.0237882 0.00239187 0
-0.0262585 0.00209163 0
-0.0282895 0.00165833 0
-0.0297419 0.00109224 0
-0.0304873 0.000405394 0
-0.0304202 -0.000376872 0
-0.0294729 -0.00121485 0
-0.0276295 -0.00205121 0
-0.0249381 -0.00281579 0
-0.0215185 -0.00343215 0
-0.0175631 -0.00382695 0
-0.0133286 -0.00394142 0
-0.00911683 -0.00374368 0
-0.00524551 -0.00323944 0
-0.00200894 -0.00247811 0
0.00036491 -0.00155197 0
0.00175701 -0.000586588 0
0.00218844 0.000272629 0
0.00183641 0.000867352 0
0.00103784 0.00102489 0
0.000289451 0.000564557 0
-0.000181523 1.80773e-05 0
-0.00100599 0.00113599 0
-0.00274245 0.0024869 0
-0.0053155 0.00369665 0
-0.0085811 0.00465734 0
-0.0123846 0.00537927 0
-0.0165833 0.00590183 0
-0.0210463 0.00625109 0
-0.0256439 0.00642776 0
-0.0302368 0.0064109 0
-0.03467 0.00616782 0
-0.0387715 0.00566453 0
-0.0423572 0.00487499 0
-0.0452395 0.00378826 0
-0.047239 0.00241425 0
-0.048198 0.000787719 0
-0.0479951 -0.00102915 0
-0.0465603 -0.00294466 0
-0.0438879 -0.00483713 0
-0.0400482 -0.006561 0
-0.0351958 -0.00795897 0
-0.0295721 -0.00887921 0
-0.0234989 -0.0091969 0
-0.0173605 -0.00883832 0
-0.0115727 -0.007804 0
-0.00653772 -0.00618507 0
-0.00258954 -0.00416705 0
6.44421e-05 -0.00201759 0
0.00139487 -5.82381e-05 0
0.00158225 0.00136286 0
0.00101876 0.00189145 0
0.000305573 0.00115958 0
-0.000399863 0.000599463 0
-0.00190999 0.0028892 0
-0.00471825 0.00527842 0
-0.00857683 0.00733675 0
-0.0132497 0.00895566 0
-0.0185314 0.0101662 0
-0.0242442 0.0110264 0
-0.0302231 0.0115685 0
-0.0363013 0.0117861 0
-0.042299 0.0116432 0
-0.0480198 0.0110896 0
-0.0532532 0.0100777 0
-0.0577815 0.00857588 0
-0.0613907 0.00657893 0
-0.0638829 0.00411529 0
-0.0650894 0.0012521 0
-0.0648837 -0.00190206 0
-0.0631934 -0.00519686 0
-0.0600098 -0.00844095 0
-0.0554002 -0.0114064 0
-0.0495205 -0.0138457 0
-0.0426215 -0.0155152 0
-0.0350486 -0.016207 0
-0.0272302 -0.0157851 0
-0.0196503 -0.0142249 0
-0.012804 -0.0116454 0
-0.0071333 -0.00832551 0
-0.00295391 -0.0046925 0
-0.000384911 -0.00128276 0
0.000700724 0.00131436 0
0.000695203 0.00250896 0
0.000242651 0.0017078 0
-0.000632721 0.00163205 0
-0.00287445 0.00560847 0
-0.0068156 0.00930856 0
-0.0120046 0.0123542 0
-0.0180952 0.0147015 0
-0.0248257 0.0164326 0
-0.0319859 0.017633 0
-0.0393853 0.0183402 0
-0.0468309 0.0185382 0
-0.0541165 0.0181743 0
-0.0610203 0.0171829 0
-0.0673094 0.0155068 0
-0.072749 0.0131146 0
-0.0771122 0.0100127 0
-0.0801919 0.00625351 0
-0.0818117 0.00194012 0
-0.081836 -0.00277145 0
-0.0801768 -0.00767698 0
-0.0768014 -0.0125199 0
-0.0717484 -0.0169901 0
-0.0651452 -0.0207449 0
-0.0572228 -0.0234375 0
-0.0483231 -0.0247572 0
-0.038897 -0.0244795 0
-0.0294848 -0.0225226 0
-0.020675 -0.0190039 0
-0.0130356 -0.014277 0
-0.00702363 -0.00893236 0
-0.00288853 -0.003747 0
-0.000598264 0.000402704 0
0.000195501 0.00263238 0
0.000140993 0.00209145 0
-0.000868257 0.00313302 0
-0.00384699 0.00932795 0
-0.00892062 0.0146038 0
-0.0154242 0.0187516 0
-0.0228963 0.0218668 0
-0.031019 0.0241206 0
-0.0395541 0.0256402 0
-0.0482932 0.0264715 0
-0.057029 0.0265883 0
-0.0655416 0.0259224 0
-0.0735976 0.0243946 0
-0.0809551 0.0219417 0
-0.0873715 0.0185357 0
-0.0926132 0.0141965 0
-0.0964639 0.00900022 0
-0.0987337 0.00308294 0
-0.0992658 -0.00335784 0
-0.0979413 -0.0100743 0
-0.0946846 -0.0167546 0
-0.089483 -0.02301 0
-0.0824128 -0.0283983 0
-0.0736615 -0.0324578 0
-0.0635452 -0.0347528 0
-0.0525187 -0.0349366 0
-0.0411681 -0.0328283 0
-0.0301784 -0.0284977 0
-0.0202646 -0.0223363 0
-0.0120655 -0.0150842 0
-0.00601378 -0.00778191 0
-0.00222153 -0.0016449 0
-0.000421108 0.0020858 0
1.94936e-05 0.00225193 0
-0.00109685 0.00509813 0
-0.00478553 0.0140303 0
-0.0109412 0.0211308 0
-0.0186915 0.0264786 0
-0.0274656 0.030386 0
-0.0368947 0.0331533 0
-0.0467187 0.0349666 0
-0.0567201 0.0358856 0
-0.0666867 0.0358765 0
-0.0763965 0.0348566 0
-0.0856149 0.0327349 0
-0.0940991 0.029443 0
-0.101604 0.0249555 0
-0.107888 0.0193029 0
-0.112723 0.0125791 0
-0.115895 0.00494524 0
-0.117213 -0.00336964 0
-0.116516 -0.0120837 0
-0.113674 -0.0208442 0
-0.108607 -0.0291885 0
-0.101324 -0.0365734 0
-0.0919471 -0.0424109 0
-0.0807444 -0.0461186 0
-0.0681511 -0.0471907 0
-0.0547798 -0.045296 0
-0.0414051 -0.0403945 0
-0.0289031 -0.0328553 0
-0.0181351 -0.0235324 0
-0.00978063 -0.0137399 0
-0.00416381 -0.00509597 0
-0.00114451 0.000717131 0
-0.000117967 0.00215346 0
-0.00130842 0.0075034 0
-0.00564926 0.0196545 0
-0.0127921 0.028805 0
-0.0216757 0.0354383 0
-0.0316325 0.0401571 0
-0.0422515 0.0434303 0
-0.053258 0.0455202 0
-0.0644327 0.0465081 0
-0.0755671 0.0463551 0
-0.0864452 0.0449658 0
-0.0968386 0.0422374 0
-0.106508 0.038094 0
-0.115207 0.0325081 0
-0.122685 0.0255134 0
-0.128694 0.0172122 0
-0.13299 0.00777967 0
-0.135341 -0.00253446 0
-0.135537 -0.0134194 0
-0.133389 -0.0244989 0
-0.128745 -0.0352446 0
-0.121531 -0.0450146 0
-0.111788 -0.0530893 0
-0.0997103 -0.058721 0
-0.0856809 -0.061211 0
-0.070307 -0.0600208 0
-0.0544276 -0.0549238 0
-0.0390761 -0.0461796 0
-0.0253672 -0.0346851 0
-0.014296 -0.0220128 0
-0.00648752 -0.0102484 0
-0.00199828 -0.00163898 0
-0.000275369 0.00176012 0
-0.00149215 0.010304 0
-0.00639689 0.0260995 0
-0.0143912 0.0374971 0
-0.0242531 0.0454917 0
-0.0352352 0.0510427 0
-0.046894 0.0548226 0
-0.0589469 0.0571874 0
-0.0711787 0.0582473 0
-0.0833907 0.0579623 0
-0.0953786 0.0562246 0
-0.106924 0.0529176 0
-0.117794 0.0479534 0
-0.127742 0.041295 0
-0.136507 0.0329694 0
-0.143818 0.023076 0
-0.149399 0.011793 0
-0.152976 -0.000619536 0
-0.15429 -0.0138239 0
-0.153096 -0.0274363 0
-0.149171 -0.0408767 0
-0.142353 -0.0534139 0
-0.132586 -0.0641999 0
-0.119961 -0.072314 0
-0.104771 -0.0768367 0
-0.0875722 -0.0769681 0
-0.0692203 -0.0722078 0
-0.0508761 -0.0625914 0
-0.0339154 -0.0489429 0
-0.0197113 -0.0330302 0
-0.00929635 -0.0174544 0
-0.00303044 -0.00518812 0
-0.000464424 0.00102033 0
-0.00163706 0.0134332 0
-0.00698789 0.0332259 0
-0.0156596 0.0470367 0
-0.0263063 0.0564608 0
-0.0381193 0.0628687 0
-0.0506309 0.067167 0
-0.0635556 0.0698205 0
-0.0766862 0.0709765 0
-0.0898375 0.0705966 0
-0.10282 0.0685608 0
-0.115429 0.0647359 0
-0.12744 0.0590159 0
-0.138605 0.0513456 0
-0.148657 0.0417353 0
-0.157307 0.0302707 0
-0.16425 0.0171224 0
-0.169174 0.00255281 0
-0.171778 -0.013079 0
-0.171767 -0.0293857 0
-0.168859 -0.0457602 0
-0.162807 -0.0614008 0
-0.153441 -0.0753462 0
-0.140725 -0.0865087 0
-0.124821 -0.0937346 0
-0.106173 -0.0959181 0
-0.0855861 -0.0921963 0
-0.0642886 -0.0822446 0
-0.0438899 -0.0666489 0
-0.0261798 -0.0472385 0
-0.0127142 -0.0271267 0
-0.00430311 -0.0101927 0
-0.000700044 -0.000144138 0
-0.00173293 0.0168032 0
-0.00738525 0.040859 0
-0.0165263 0.0572163 0
-0.0277293 0.068131 0
-0.0401425 0.0754246 0
-0.053281 0.0802612 0
-0.0668584 0.0832283 0
-0.0806768 0.0845177 0
-0.0945662 0.0840961 0
-0.108354 0.0818314 0
-0.12185 0.0775703 0
-0.134841 0.0711831 0
-0.147086 0.0625892 0
-0.158315 0.051773 0
-0.16823 0.0387976 0
-0.176509 0.0238172 0
-0.182815 0.00708859 0
-0.186808 -0.011019 0
-0.188163 -0.0301005 0
-0.186557 -0.0495593 0
-0.181659 -0.0685521 0
-0.173188 -0.0860326 0
-0.160956 -0.100769 0
-0.144953 -0.111381 0
-0.125443 -0.11643 0
-0.1031 -0.114613 0
-0.0791263 -0.105099 0
-0.0552958 -0.0880238 0
-0.0338124 -0.0650572 0
-0.0168595 -0.0397266 0
-0.00588273 -0.0169807 0
-0.000998906 -0.00184309 0
-0.00177146 0.0203076 0
-0.00755885 0.0487943 0
-0.0169331 0.0677963 0
-0.0284341 0.0802551 0
-0.0411846 0.0884642 0
-0.0546861 0.0938617 0
-0.0686513 0.0971703 0
-0.0828905 0.0986335 0
-0.0972483 0.0982275 0
-0.111569 0.0958084 0
-0.125681 0.0912011 0
-0.139386 0.0842484 0
-0.152456 0.074839 0
-0.164629 0.0629258 0
-0.175612 0.0485431 0
-0.185084 0.0318217 0
-0.192698 0.0130041 0
-0.198096 -0.00754326 0
-0.20094 -0.0293773 0
-0.200877 -0.0519519 0
-0.197515 -0.0744185 0
-0.190464 -0.0956889 0
-0.179378 -0.114431 0
-0.164032 -0.129069 0
-0.144452 -0.137832 0
-0.121084 -0.138922 0
-0.0949863 -0.130861 0
-0.0679839 -0.113094 0
-0.0426368 -0.0868172 0
-0.021823 -0.0557333 0
-0.00783206 -0.0259417 0
-0.00137799 -0.00421998 0
-0.00174734 0.0238264 0
-0.00748913 0.0568047 0
-0.0168414 0.0785124 0
-0.0283602 0.0925588 0
-0.041159 0.10171 0
-0.0547279 0.107687 0
-0.068775 0.111358 0
-0.0831164 0.113027 0
-0.097609 0.112685 0
-0.112115 0.110178 0
-0.126481 0.10531 0
-0.140532 0.0978954 0
-0.154061 0.0877904 0
-0.166828 0.0749149 0
-0.178562 0.0592711 0
-0.188959 0.0409623 0
-0.197692 0.0202102 0
-0.204411 -0.00263116 0
-0.208776 -0.0270821 0
-0.210423 -0.0526624 0
-0.208929 -0.0785632 0
-0.203813 -0.103712 0
-0.194568 -0.12674 0
-0.180737 -0.145936 0
-0.162049 -0.159233 0
-0.138622 -0.164316 0
-0.111239 -0.158947 0
-0.081623 -0.141627 0
-0.052567 -0.112687 0
-0.027648 -0.0755958 0
-0.010204 -0.037514 0
-0.00185389 -0.00745186 0
-0.00165929 0.027233 0
-0.00717047 0.064651 0
-0.0162378 0.0890857 0
-0.0274833 0.10475 0
-0.0400262 0.11486 0
-0.0533447 0.121423 0
-0.0671387 0.125462 0
-0.0812246 0.12735 0
-0.0954695 0.127099 0
-0.109752 0.124552 0
-0.123943 0.119493 0
-0.137891 0.111712 0
-0.151423 0.101034 0
-0.164335 0.0873495 0
-0.176394 0.0706294 0
-0.187341 0.0509489 0
-0.19689 0.0285046 0
-0.204727 0.00363143 0
-0.210525 -0.0231822 0
-0.213939 -0.0515009 0
-0.214549 -0.0806086 0
-0.211815 -0.109518 0
-0.205086 -0.136908 0
-0.193664 -0.16102 0
-0.176937 -0.179565 0
-0.154611 -0.189738 0
-0.127053 -0.188467 0
-0.0956969 -0.17308 0
-0.0633864 -0.142601 0
-0.0343163 -0.0996713 0
-0.0130362 -0.0521625 0
-0.00244201 -0.0117478 0
-0.00151072 0.030403 0
-0.00661367 0.0720952 0
-0.0151394 0.0992346 0
-0.0258228 0.11653 0
-0.0378033 0.127604 0
-0.0505467 0.134742 0
-0.0637386 0.139129 0
-0.0771915 0.141221 0
-0.0907789 0.14106 0
-0.104396 0.138491 0
-0.117938 0.133287 0
-0.131287 0.125216 0
-0.144308 0.114083 0
-0.156846 0.0997506 0
-0.168726 0.0821676 0
-0.179752 0.0613841 0
-0.189705 0.0375703 0
-0.198334 0.0110326 0
-0.20535 -0.017769 0
-0.210455 -0.0483955 0
-0.213275 -0.0802837 0
-0.213248 -0.112604 0
-0.209616 -0.144183 0
-0.201454 -0.173329 0
-0.18779 -0.197647 0
-0.167848 -0.213923 0
-0.141445 -0.218242 0
-0.109527 -0.206578 0
-0.0747467 -0.176194 0
-0.041739 -0.128156 0
-0.0163471 -0.0703492 0
-0.00315632 -0.0173461 0
-0.00131008 0.0332238 0
-0.00584742 0.0789147 0
-0.0135969 0.10869 0
-0.0234471 0.127608 0
-0.0345717 0.139631 0
-0.0464239 0.14731 0
-0.0586703 0.152 0
-0.0711142 0.154248 0
-0.0836334 0.15414 0
-0.0961394 0.151534 0
-0.108554 0.1462 0
-0.120795 0.137894 0
-0.132774 0.126405 0
-0.144393 0.111585 0
-0.155545 0.0933649 0
-0.166112 0.0717801 0
-0.175964 0.0469786 0
-0.184943 0.0192325 0
-0.192842 -0.0110533 0
-0.199435 -0.0434136 0
-0.204414 -0.0774673 0
-0.207249 -0.112612 0
-0.20713 -0.147927 0
-0.202947 -0.18193 0
-0.193382 -0.212276 0
-0.177135 -0.235482 0
-0.153362 -0.246859 0
-0.122318 -0.240923 0
-0.0861836 -0.212764 0
-0.0497564 -0.161021 0
-0.0201347 -0.0924982 0
-0.00401007 -0.0245125 0
-0.00107072 0.0356046 0
-0.00491829 0.0849188 0
-0.0116951 0.117213 0
-0.0204751 0.137716 0
-0.0304792 0.150652 0
-0.0411492 0.158812 0
-0.05213 0.163725 0
-0.0632123 0.166048 0
-0.0742765 0.165923 0
-0.085251 0.163232 0
-0.0960863 0.157752 0
-0.106741 0.149238 0
-0.117176 0.137476 0
-0.127354 0.122312 0
-0.13724 0.103676 0
-0.146805 0.0816009 0
-0.156018 0.0562225 0
-0.164836 0.0277854 0
-0.17318 -0.00336261 0
-0.180916 -0.0367757 0
-0.187819 -0.0722229 0
-0.193457 -0.109384 0
-0.197034 -0.147697 0
-0.197328 -0.186048 0
-0.192721 -0.222331 0
-0.181396 -0.252999 0
-0.161768 -0.272744 0
-0.133217 -0.274633 0
-0.0971458 -0.251261 0
-0.0581454 -0.197951 0
-0.024379 -0.118956 0
-0.00501796 -0.0335405 0
-0.000810307 0.0374856 0
-0.00388971 0.0899648 0
-0.00955242 0.124606 0
-0.0170753 0.146625 0
-0.0257377 0.160409 0
-0.0349742 0.168961 0
-0.0444076 0.17399 0
-0.0538158 0.176274 0
-0.0630827 0.176028 0
-0.0721558 0.173174 0
-0.0810177 0.167507 0
-0.0896706 0.15879 0
-0.0981284 0.146816 0
-0.106416 0.131437 0
-0.114573 0.112594 0
-0.122653 0.0903282 0
-0.130728 0.0647829 0
-0.138876 0.0361914 0
-0.147157 0.00485584 0
-0.155556 -0.0288587 0
-0.163975 -0.0648173 0
-0.172118 -0.103009 0
-0.17929 -0.143324 0
-0.184251 -0.185166 0
-0.185178 -0.226892 0
-0.179788 -0.265151 0
-0.165736 -0.294272 0
-0.141379 -0.306012 0
-0.107032 -0.290301 0
-0.0666347 -0.23831 0
-0.0290505 -0.149948 0
-0.00620071 -0.0447592 0
-0.000550172 0.0388461 0
-0.00284018 0.0939737 0
-0.00731865 0.130738 0
-0.0134631 0.15416 0
-0.0206188 0.168692 0
-0.0282199 0.177516 0
-0.035872 0.182521 0
-0.0433442 0.184624 0
-0.0505278 0.184129 0
-0.0573942 0.181013 0
-0.0639634 0.175099 0
-0.0702849 0.166172 0
-0.0764288 0.154036 0
-0.0824829 0.138559 0
-0.088555 0.119701 0
-0.0947773 0.0975239 0
-0.101311 0.0721954 0
-0.108341 0.043958 0
-0.116058 0.0130869 0
-0.124591 -0.0201572 0
-0.133987 -0.0557043 0
-0.144125 -0.0938408 0
-0.154485 -0.13496 0
-0.163933 -0.17912 0
-0.170578 -0.225365 0
-0.171796 -0.27085 0
-0.164527 -0.309895 0
-0.146023 -0.333249 0
-0.115228 -0.328205 0
-0.0749218 -0.281109 0
-0.0341205 -0.185534 0
-0.00759164 -0.0585515 0
-0.000314695 0.039711 0
-0.00186207 0.0969462 0
-0.00517322 0.135555 0
-0.00989768 0.160212 0
-0.0154469 0.175345 0
-0.0212654 0.184282 0
-0.0269527 0.189094 0
-0.0322791 0.190849 0
-0.0371519 0.18996 0
-0.0415743 0.18647 0
-0.04561 0.180246 0
-0.0493615 0.171098 0
-0.0529578 0.15885 0
-0.0565503 0.143391 0
-0.0603124 0.124702 0
-0.0644429 0.102875 0
-0.0691718 0.0781066 0
-0.0747636 0.0506692 0
-0.0815091 0.0208384 0
-0.0896824 -0.0112028 0
-0.0994784 -0.0454668 0
-0.110947 -0.0824717 0
-0.12381 -0.123107 0
-0.137169 -0.168167 0
-0.149253 -0.217589 0
-0.157286 -0.269376 0
-0.157642 -0.318284 0
-0.146474 -0.354533 0
-0.121126 -0.363064 0
-0.0826822 -0.325 0
-0.0395712 -0.225555 0
-0.00924353 -0.0753867 0
-0.00013152 0.0401572 0
-0.00106237 0.0989782 0
-0.00332616 0.139098 0
-0.00668082 0.164748 0
-0.0105942 0.180272 0
-0.0145355 0.189115 0
-0.0181193 0.193532 0
-0.0211345 0.194753 0
-0.0235198 0.193314 0
-0.0253211 0.18934 0
-0.0266542 0.182746 0
-0.0276793 0.173375 0
-0.0285882 0.161078 0
-0.0295969 0.145765 0
-0.0309426 0.127437 0
-0.0328842 0.106212 0
-0.0357045 0.0823183 0
-0.039716 0.0560608 0
-0.0452642 0.0277405 0
-0.052715 -0.00248087 0
-0.0623795 -0.0347282 0
-0.0744616 -0.0696594 0
-0.088943 -0.108575 0
-0.105276 -0.153006 0
-0.122018 -0.203924 0
-0.136516 -0.26051 0
-0.144833 -0.318477 0
-0.142162 -0.368179 0
-0.12412 -0.392808 0
-0.0895579 -0.368262 0
-0.0453931 -0.26957 0
-0.0112316 -0.0958619 0
-3.35079e-05 0.0403222 0
-0.000568357 0.100279 0
-0.00202488 0.141518 0
-0.0041607 0.167819 0
-0.00647699 0.18343 0
-0.00848968 0.191911 0
-0.00986078 0.195691 0
-0.0104277 0.196175 0
-0.0101821 0.194032 0
-0.00922879 0.189471 0
-0.00774497 0.182464 0
-0.00595377 0.17289 0
-0.00411163 0.160629 0
-0.00250044 0.145611 0
-0.00142062 0.127857 0
-0.00118739 0.107501 0
-0.00212802 0.0847906 0
-0.00458064 0.0600527 0
-0.00889715 0.0336134 0
-0.0154492 0.00564918 0
-0.0245973 -0.0240457 0
-0.0366457 -0.0562114 0
-0.051796 -0.0923911 0
-0.0699102 -0.134742 0
-0.0900724 -0.185284 0
-0.11008 -0.244644 0
-0.126073 -0.310033 0
-0.13259 -0.372776 0
-0.123554 -0.415289 0
-0.095109 -0.408788 0
-0.051556 -0.316761 0
-0.0136472 -0.120741 0
-6.42115e-05 0.0404199 0
-0.000542408 0.101194 0
-0.00157129 0.143088 0
-0.00274206 0.169555 0
-0.00355521 0.184823 0
-0.00360815 0.192583 0
-0.00266133 0.195443 0
-0.000643288 0.194973 0
0.00236982 0.191976 0
0.00619429 0.186749 0
0.0105784 0.179318 0
0.0152261 0.169598 0
0.0198128 0.157493 0
0.0239936 0.142955 0
0.0274107 0.126016 0
0.0297009 0.106818 0
0.0305058 0.0856091 0
0.0294817 0.0627109 0
0.0263078 0.0384456 0
0.0206829 0.012994 0
0.0122899 -0.0138494 0
0.000794867 -0.0428643 0
-0.0141512 -0.0756418 0
-0.0327714 -0.114757 0
-0.0547901 -0.163088 0
-0.0787844 -0.222837 0
-0.101464 -0.293167 0
-0.117243 -0.367344 0
-0.118624 -0.428376 0
-0.0987094 -0.444062 0
-0.0579382 -0.365812 0
-0.0165744 -0.150962 0
-0.000290018 0.0407742 0
-0.0012127 0.102241 0
-0.00235404 0.144212 0
-0.00290359 0.170152 0
-0.00232885 0.184465 0
-0.000369199 0.191035 0
0.00304466 0.19263 0
0.00782506 0.190987 0
0.0137591 0.187015 0
0.0205623 0.181082 0
0.0279023 0.173261 0
0.0354139 0.163496 0
0.0427113 0.151711 0
0.0493964 0.137871 0
0.0550661 0.122013 0
0.0593235 0.104273 0
0.061792 0.0848804 0
0.0621316 0.064124 0
0.0600515 0.0422864 0
0.055311 0.0195186 0
0.0476878 -0.00435785 0
0.0369436 -0.0301166 0
0.0227943 -0.0592942 0
0.00482091 -0.0945114 0
-0.0173895 -0.139105 0
-0.0434303 -0.196785 0
-0.0711051 -0.268865 0
-0.0954604 -0.351512 0
-0.108209 -0.430078 0
-0.0993682 -0.471115 0
-0.0641906 -0.414708 0
-0.020042 -0.187579 0
-0.00082424 0.0418884 0
-0.00292817 0.104153 0
-0.00489655 0.145409 0
-0.00521347 0.169821 0
-0.00332015 0.182328 0
0.000790422 0.187102 0
0.00689345 0.187047 0
0.0146593 0.184024 0
0.0237008 0.179002 0
0.0336121 0.172381 0
0.0439767 0.164258 0
0.0543694 0.154594 0
0.0643584 0.143326 0
0.0735106 0.130419 0
0.0813987 0.115907 0
0.0876133 0.0999074 0
0.0917792 0.082612 0
0.0935737 0.0642583 0
0.092741 0.0450648 0
0.089094 0.0251277 0
0.082489 0.00426124 0
0.0727523 -0.0182547 0
0.059627 -0.0438815 0
0.0427268 -0.0750504 0
0.0215432 -0.115172 0
-0.00448675 -0.168648 0
-0.034898 -0.238917 0
-0.0662823 -0.325721 0
-0.0906648 -0.418738 0
-0.0954595 -0.486501 0
-0.0695087 -0.46045 0
-0.0239366 -0.231557 0
-0.0018703 0.044583 0
-0.00624075 0.107933 0
-0.00989924 0.147256 0
-0.010301 0.168693 0
-0.0069925 0.178254 0
-0.00042362 0.180496 0
0.00872979 0.178396 0
0.0198073 0.173831 0
0.0322128 0.167748 0
0.0454114 0.160525 0
0.058912 0.152248 0
0.0722473 0.142876 0
0.0849631 0.13234 0
0.0966173 0.120599 0
0.106784 0.107672 0
0.115068 0.0936448 0
0.121115 0.0786617 0
0.124634 0.0628948 0
0.125408 0.0464874 0
0.123291 0.0294688 0
0.118188 0.011628 0
0.109984 -0.00768025 0
0.098436 -0.0297828 0
0.0831339 -0.0569468 0
0.0634666 -0.0924249 0
0.0385886 -0.140487 0
0.00773627 -0.205814 0
-0.0282743 -0.291429 0
-0.063581 -0.393341 0
-0.0843459 -0.486339 0
-0.0722654 -0.498643 0
-0.0278536 -0.283348 0
-0.00378688 0.0502401 0
-0.0119825 0.114842 0
-0.0181723 0.150195 0
-0.0186262 0.166609 0
-0.0134016 0.171805 0
-0.00373559 0.17071 0
0.00907327 0.16622 0
0.0239626 0.160041 0
0.0401122 0.152983 0
0.0568766 0.145327 0
0.073718 0.137104 0
0.090158 0.128245 0
0.105751 0.118662 0
0.120077 0.108297 0
0.132741 0.0971433 0
0.143384 0.085248 0
0.151694 0.0727012 0
0.157423 0.0596067 0
0.160391 0.0460339 0
0.160482 0.031948 0
0.157622 0.0171116 0
0.151719 0.000943545 0
0.142534 -0.0176738 0
0.129608 -0.0408277 0
0.112193 -0.0714614 0
0.0891328 -0.113513 0
0.0589695 -0.171773 0
0.0207001 -0.25119 0
-0.0235646 -0.354008 0
-0.0618972 -0.466574 0
-0.0694244 -0.522961 0
-0.0308323 -0.342034 0
-0.00714239 0.0611694 0
-0.0211588 0.126125 0
-0.0300941 0.154038 0
-0.029576 0.162703 0
-0.0210634 0.161975 0
-0.00702927 0.156841 0
0.0104717 0.149779 0
0.0299733 0.14209 0
0.0504752 0.134282 0
0.0712801 0.126458 0
0.0918558 0.118555 0
0.111757 0.110453 0
0.130584 0.102033 0
0.14797 0.0932135 0
0.163577 0.0839557 0
0.177104 0.0742657 0
0.188297 0.064181 0
0.19695 0.0537439 0
0.202917 0.0429623 0
0.206092 0.0317537 0
0.206389 0.0198693 0
0.203687 0.00679061 0
0.197763 -0.008412 0
0.188106 -0.0275065 0
0.173761 -0.053022 0
0.153228 -0.0883601 0
0.124404 -0.137938 0
0.0849409 -0.207292 0
0.033908 -0.302608 0
-0.0219472 -0.423786 0
-0.0555786 -0.524591 0
-0.0308542 -0.40372 0
-0.0125466 0.0808584 0
-0.0339065 0.141812 0
-0.0433531 0.156732 0
-0.0384115 0.154549 0
-0.0234671 0.146672 0
-0.00261921 0.137261 0
0.0213702 0.127868 0
0.0467957 0.119075 0
0.0726472 0.110944 0
0.0982905 0.103348 0
0.123278 0.0961029 0
0.147253 0.0890296 0
0.169904 0.0819779 0
0.190948 0.0748384 0
0.210127 0.0675442 0
0.227212 0.0600654 0
0.242005 0.0523959 0
0.254348 0.0445321 0
0.264114 0.0364414 0
0.271194 0.0280194 0
0.27547 0.0190315 0
0.276768 0.00903226 0
0.274792 -0.00275427 0
0.268952 -0.0176668 0
0.258119 -0.0376834 0
0.240437 -0.0654851 0
0.213201 -0.104752 0
0.172941 -0.160755 0
0.116328 -0.2415 0
0.0442753 -0.356985 0
-0.021328 -0.492157 0
-0.0238162 -0.45839 0
-0.0191463 0.112551 0