# vtk DataFile Version 2.0
Lid-driven cavity
ASCII
DATASET STRUCTURED_POINTS
DIMENSIONS 32 32 1
ORIGIN 0.015625 0.015625 0
SPACING 0.03125 0.03125 1
POINT_DATA 1024
SCALARS pressure double 1
LOOKUP_TABLE default
27.7183
27.5914
27.3788
27.1519
26.9528
26.8016
26.708
26.6782
26.7193
26.8404
27.0515
27.3621
27.7789
28.303
28.9275
29.6362
30.4023
31.1895
31.951
32.6338
33.1852
33.5605
33.7307
33.6888
33.4531
33.0658
32.5864
32.0844
31.6302
31.2862
31.0994
31.0819
27.8451
27.7131
27.5373
27.3584
27.2023
27.0838
27.0114
26.9921
27.0332
27.1436
27.3329
27.6101
27.9815
28.4486
29.0061
29.6398
30.326
31.0332
31.7186
32.3341
32.8316
33.1707
33.326
33.2924
33.0884
32.7538
32.3432
31.9167
31.5328
31.2407
31.0772
31.0642
28.0652
27.878
27.696
27.534
27.4011
27.3018
27.2399
27.2201
27.2494
27.3368
27.4926
27.7272
28.0485
28.4606
28.9611
29.5393
30.1746
30.8376
31.4874
32.0764
32.5564
32.8861
33.0387
33.0089
32.8145
32.4955
32.1058
31.7041
31.3426
31.0646
30.902
30.8799
28.2979
28.0334
27.8217
27.656
27.5285
27.4331
27.3671
27.332
27.334
27.3828
27.4906
27.6701
27.9331
28.2878
28.7361
29.2717
29.8774
30.5244
31.1718
31.7703
32.2679
32.6185
32.7904
32.7738
32.5846
32.2626
31.8639
31.449
31.0719
30.7736
30.5844
30.5277
28.4711
28.1221
27.8698
27.6867
27.5495
27.4415
27.3536
27.2846
27.24
27.2306
27.2712
27.3788
27.57
27.8585
28.2521
28.7499
29.3392
29.9911
30.6648
31.3077
31.8621
32.2733
32.5
32.5238
32.3542
32.029
31.6066
31.153
30.7283
30.3781
30.1342
30.0201
28.5171
28.0842
27.7869
27.5773
27.4168
27.2789
27.1494
27.0244
26.9094
26.8172
26.7663
26.7784
26.8765
27.0811
27.4073
27.8611
28.4365
29.1061
29.8304
30.554
31.2112
31.7357
32.0713
32.1841
32.0712
31.7633
31.3191
30.8121
30.3139
29.8817
29.5555
29.3636
28.3702
27.8578
27.5148
27.2715
27.0747
26.889
26.6955
26.4888
26.275
26.0695
25.8949
25.7789
25.7517
25.8423
26.0746
26.4639
27.013
27.7016
28.4945
29.3348
30.1486
30.8544
31.375
31.6528
31.6625
31.4188
30.9757
30.4142
29.823
29.2799
28.8425
28.552
27.9661
27.3808
26.9926
26.7092
26.4626
26.2094
25.927
25.609
25.2624
24.9053
24.5653
24.2766
24.0778
24.0079
24.1022
24.3877
24.8788
25.5706
26.4384
27.4273
28.4562
29.426
30.2323
30.7832
31.0176
30.921
30.5319
29.9352
29.2416
28.561
27.982
27.5665
27.2429
26.5936
26.1609
25.83
25.5189
25.1767
24.7773
24.3135
23.7933
23.2377
22.679
22.1588
21.7251
21.429
21.3196
21.4393
21.8176
22.4728
23.4027
24.5602
25.8606
27.1869
28.4021
29.3689
29.974
30.1539
29.9141
29.3329
28.5448
27.7046
26.9496
26.3777
26.1451
25.442
24.9654
24.5786
24.1863
23.731
23.183
22.5339
21.7925
20.9819
20.1393
19.3135
18.5634
17.9541
17.5521
17.4191
17.6044
18.1525
19.1039
20.4281
22.0434
23.8181
25.5803
27.1372
28.3053
28.9471
29.0083
28.54
27.6941
26.6829
25.716
24.948
24.6272
23.882
23.3615
22.909
22.4174
21.8224
21.0911
20.2131
19.1966
18.0664
16.8636
15.6446
14.4797
13.4504
12.644
12.147
12.0353
12.3721
13.2683
14.7239
16.6703
18.9687
21.4149
23.7555
25.72
27.0688
27.6512
27.4564
26.6345
25.4613
24.2473
23.2352
22.6582
21.8841
21.3193
20.7905
20.1802
19.4181
18.4671
17.3141
15.9655
14.4462
12.8002
11.0911
9.40127
7.83029
6.48964
5.49503
4.95535
4.95916
5.68133
7.18972
9.44094
12.3018
15.5452
18.8594
21.8769
24.2291
25.6258
25.9437
25.291
23.999
22.5093
21.1972
20.2258
19.4366
18.8276
18.2122
17.4646
16.5088
15.3033
13.8308
12.0944
10.1175
7.94578
5.64876
3.3212
1.0817
-0.931584
-2.5695
-3.685
-4.15121
-3.75712
-2.32004
0.156146
3.56098
7.66244
12.1037
16.4222
20.1019
22.6693
23.8238
23.5668
22.2516
20.4731
18.7985
17.3386
16.5492
15.8968
15.1865
14.2862
13.1148
11.6256
9.79619
7.62464
5.1311
2.36101
-0.611176
-3.67933
-6.70552
-9.52361
-11.948
-13.7884
-14.8706
-14.9745
-13.7728
-11.2093
-7.35153
-2.41121
3.23606
9.05088
14.3685
18.4978
20.8898
21.3472
20.1755
18.1231
16.0197
14.0278
13.253
12.5604
11.7512
10.6891
9.28879
7.49808
5.28797
2.65019
-0.400243
-3.81982
-7.53099
-11.4177
-15.3236
-19.0549
-22.3887
-25.0882
-26.925
-27.6828
-26.9058
-24.4437
-20.3013
-14.6408
-7.81923
-0.414515
6.78282
12.8517
16.9303
18.5108
17.7364
15.4685
12.8703
10.3453
9.59966
8.87318
7.96774
6.74521
5.1163
3.02305
0.429111
-2.68162
-6.3008
-10.3887
-14.8665
-19.6102
-24.4472
-29.158
-33.4842
-37.1439
-39.8559
-41.3697
-41.2078
-39.0672
-34.8745
-28.7154
-20.8837
-11.9403
-2.74927
5.56006
11.7729
14.954
14.9256
12.5601
9.40647
6.3602
5.65693
4.90726
3.91782
2.55014
0.711296
-1.66295
-4.61716
-8.17639
-12.3404
-17.0746
-22.3009
-27.8896
-33.6545
-39.3536
-44.697
-49.3622
-53.0189
-55.3618
-55.955
-54.351
-50.3788
-44.0259
-35.4793
-25.2156
-14.0927
-3.38486
5.34305
10.6298
11.7847
9.51438
5.75556
2.15226
1.50238
0.745424
-0.303857
-1.7836
-3.79102
-6.39773
-9.65757
-13.6056
-18.2506
-23.5647
-29.4718
-35.8385
-42.4677
-49.0995
-55.4173
-61.065
-65.6697
-68.8744
-70.2887
-69.3907
-65.9038
-59.7031
-50.8358
-39.6268
-26.8297
-13.7583
-2.268
5.60062
8.44415
6.54631
2.15098
-2.19595
-2.78509
-3.5276
-4.59817
-6.13568
-8.24415
-11.0049
-14.4827
-18.7241
-23.7477
-29.5327
-36.0063
-43.0327
-50.4069
-57.8546
-65.0392
-71.5785
-77.0681
-81.111
-83.3363
-83.2307
-80.4412
-74.722
-65.9657
-54.2925
-40.2512
-25.0588
-10.7398
0.101445
5.17488
4.01761
-1.01742
-6.60858
-7.13497
-7.83488
-8.87132
-10.3879
-12.5009
-15.3061
-18.8825
-23.2894
-28.5561
-34.669
-41.5584
-49.0873
-57.0447
-65.1453
-73.0379
-80.3224
-86.5746
-91.3747
-94.3355
-95.019
-93.0412
-88.0556
-79.8004
-68.1651
-53.4097
-36.5078
-19.4803
-5.39561
2.45706
2.50562
-3.12655
-11.0267
-11.4956
-12.1174
-13.0442
-14.433
-16.4231
-19.1327
-22.6603
-27.0799
-32.4317
-38.7084
-45.8428
-53.6962
-62.0525
-70.6186
-79.0328
-86.8838
-93.7363
-99.1603
-102.756
-104.146
-102.972
-98.8455
-91.361
-80.1825
-65.2311
-47.105
-27.619
-10.1266
1.06217
2.9018
-3.20351
-15.4196
-15.8455
-16.3437
-17.06
-18.1816
-19.8884
-22.3346
-25.6444
-29.9096
-35.1799
-41.4524
-48.6589
-56.6585
-65.2305
-74.0754
-82.825
-91.0613
-98.3436
-104.239
-108.347
-110.315
-109.836
-106.54
-99.9189
-89.436
-74.665
-55.7334
-34.0478
-13.005
2.1429
6.5454
0.244865
-19.7977
-20.2064
-20.5193
-20.8898
-21.565
-22.794
-24.785
-27.6962
-31.6387
-36.6688
-42.7844
-49.9157
-57.9145
-66.5519
-75.5209
-84.447
-92.9084
-100.463
-106.68
-111.164
-113.566
-113.608
-110.964
-105.097
-95.3025
-80.8302
-61.2899
-37.5012
-12.626
7.31638
15.3896
9.46538
-24.2333
-24.6614
-24.6971
-24.5351
-24.5344
-25.056
-26.3837
-28.7216
-32.1968
-36.8669
-42.7222
-49.6805
-57.5814
-66.1842
-75.1717
-84.1626
-92.7316
-100.436
-106.848
-111.574
-114.272
-114.636
-112.326
-106.876
-97.4976
-83.1055
-62.7978
-36.6574
-7.31182
18.719
32.1832
27.7533
-28.8978
-29.3858
-28.9905
-28.0275
-27.0555
-26.6051
-27.0606
-28.6658
-31.5569
-35.7823
-41.3133
-48.0468
-55.8024
-64.3224
-73.2773
-82.2771
-90.8921
-98.6782
-105.205
-110.078
-112.95
-113.491
-111.268
-105.732
-96.0558
-81.1221
-59.4539
-30.216
4.81517
39.0065
60.6336
59.796
-34.1437
-34.7059
-33.5959
-31.4276
-29.0986
-27.3737
-26.7524
-27.4961
-29.7318
-33.479
-38.6748
-45.1835
-52.7971
-61.2365
-70.1566
-79.1579
-87.8046
-95.6475
-102.249
-107.202
-110.136
-110.701
-108.354
-102.363
-91.7311
-75.0273
-50.5971
-16.9142
25.7572
71.2738
105.498
112.049
-40.6949
-41.219
-38.831
-34.8201
-30.6267
-27.2961
-25.418
-25.2254
-26.7953
-30.0903
-34.9942
-41.3267
-48.845
-57.245
-66.1645
-75.1928
-83.8867
-91.7888
-98.4476
-103.431
-106.328
-106.73
-104.051
-97.2299
-84.9723
-65.4324
-36.3211
4.51423
57.5903
118.861
172.519
193.134
-50.1085
-50.0284
-45.1773
-38.2815
-31.5594
-26.288
-23.0312
-21.9035
-22.8702
-25.7998
-30.5033
-36.7455
-44.2443
-52.6685
-61.6383
-70.732
-79.4975
-87.4668
-94.169
-99.1368
-101.899
-101.951
-98.6821
-90.6228
-76.0311
-52.507
-16.9321
33.9895
102.243
184.974
268.038
314.273
-65.9293
-63.1144
-53.2012
-41.6995
-31.6256
-24.1427
-19.5
-17.5457
-18.0569
-20.7695
-25.4052
-31.6688
-39.2382
-47.7562
-56.827
-66.0187
-74.8712
-82.9046
-89.6253
-94.5233
-97.0539
-96.5958
-92.3797
-82.6642
-65.0287
-36.394
7.36981
71.0859
159.123
272.106
397.843
489.708
-96.5812
-83.3162
-62.6854
-44.0054
-29.8583
-20.1594
-14.3512
-11.8728
-12.2195
-14.963
-19.729
-26.1658
-33.9178
-42.6083
-51.8309
-61.1482
-70.0946
-78.1798
-84.8872
-89.6605
-91.8716
-90.7578
-85.3203
-73.5181
-52.2875
-17.8113
35.1666
113.413
224.966
377.44
567.864
736.416
-161.479
-110.022
-68.6179
-40.6289
-22.7595
-11.8965
-6.01788
-3.88983
-4.72481
-7.97521
-13.2155
-20.0722
-28.1822
-37.1685
-46.6283
-56.1285
-65.2058
-73.3649
-80.0705
-84.7238
-86.615
-84.835
-78.1306
-64.1038
-39.3913
0.452559
61.6967
153.201
288.057
487.291
781.779
1136.61
-321.857
-118.26
-46.8263
-17.3086
-2.88985
4.48038
7.58662
7.60565
5.16167
0.667046
-5.54837
-13.1776
-21.9048
-31.3884
-41.2525
-51.0848
-60.4361
-68.8173
-75.6876
-80.4261
-82.2734
-80.222
-72.8026
-57.5696
-31.1217
11.2538
76.3006
174.161
322.088
556.701
976.753
1840.28
VECTORS velocity double
8.27086e-05 -8.27086e-05 0
0.000168165 -2.74754e-06 0
3.30389e-05 0.000137873 0
-0.000371352 0.000266518 0
-0.00100325 0.000365377 0
-0.00180623 0.000437607 0
-0.00273459 0.000490751 0
-0.0037554 0.000530061 0
-0.00484231 0.000556848 0
-0.00596823 0.000569071 0
-0.00709992 0.000562622 0
-0.00819519 0.000532642 0
-0.00920248 0.000474647 0
-0.0100626 0.000385469 0
-0.0107122 0.000264096 0
-0.0110886 0.000112387 0
-0.0111366 -6.44506e-05 0
-0.0108143 -0.000257861 0
-0.0101026 -0.000453821 0
-0.00901421 -0.000634558 0
-0.00759925 -0.000780398 0
-0.00594647 -0.000872384 0
-0.00417856 -0.000895521 0
-0.0024409 -0.00084214 0
-0.000884152 -0.000714612 0
0.000356986 -0.000526527 0
0.00118548 -0.000301973 0
0.00155882 -7.13669e-05 0
0.00149995 0.000130243 0
0.00110565 0.000264054 0
0.000558434 0.000283162 0
0.000137636 0.000137636 0
-7.87239e-07 -0.00016463 0
-0.00025064 0.00024357 0
-0.00105848 0.000834526 0
-0.00245953 0.0013753 0
-0.00437249 0.00180146 0
-0.00668721 0.00211922 0
-0.00930159 0.00235188 0
-0.0121277 0.00251584 0
-0.0150837 0.00261396 0
-0.018083 0.00263726 0
-0.0210266 0.00256972 0
-0.0237993 0.00239343 0
-0.0262712 0.00209305 0
-0.0283035 0.0016595 0
-0.0297569 0.00109308 0
-0.0305029 0.000405813 0
-0.0304359 -0.00037693 0
-0.0294881 -0.00121542 0
-0.0276438 -0.0020523 0
-0.0249509 -0.00281734 0
-0.0215294 -0.00343408 0
-0.0175718 -0.0038291 0
-0.0133349 -0.00394363 0
-0.00912081 -0.00374574 0
-0.00524739 -0.00324118 0
-0.00200912 -0.00247937 0
0.000365914 -0.00155266 0
0.00175861 -0.000586712 0
0.00219009 0.000272985 0
0.00183769 0.000868009 0
0.00103853 0.00102558 0
0.000289637 0.000564908 0
-0.000181485 1.76421e-05 0
-0.001006 0.00113567 0
-0.00274288 0.00248715 0
-0.00531678 0.00369762 0
-0.00858371 0.00465903 0
-0.012389 0.00538162 0
-0.0165898 0.00590474 0
-0.0210552 0.00625447 0
-0.0256554 0.00643146 0
-0.030251 0.00641477 0
-0.0346868 0.00617165 0
-0.0387908 0.00566813 0
-0.0423787 0.00487814 0
-0.0452628 0.00379077 0
-0.0472634 0.00241593 0
-0.048223 0.00078842 0
-0.04802 -0.00102953 0
-0.0465843 -0.00294618 0
-0.0439105 -0.00483976 0
-0.0400686 -0.00656462 0
-0.0352135 -0.00796338 0
-0.0295868 -0.00888412 0
-0.0235104 -0.00920194 0
-0.0173688 -0.00884311 0
-0.0115779 -0.00780814 0
-0.00654033 -0.00618823 0
-0.00259016 -0.00416901 0
6.50894e-05 -0.00201831 0
0.00139606 -5.78733e-05 0
0.00158337 0.00136396 0
0.00101943 0.00189273 0
0.000305767 0.00116031 0
-0.000399966 0.000599093 0
-0.00191059 0.00288937 0
-0.00471995 0.00527968 0
-0.00858021 0.00733924 0
-0.0132552 0.00895934 0
-0.0185396 0.010171 0
-0.0242554 0.0110321 0
-0.0302377 0.0115748 0
-0.0363192 0.0117929 0
-0.0423203 0.01165 0
-0.0480443 0.0110962 0
-0.0532806 0.0100838 0
-0.0578113 0.0085811 0
-0.0614224 0.00658293 0
-0.0639158 0.00411781 0
-0.0651227 0.00125293 0
-0.0649167 -0.00190304 0
-0.0632253 -0.00519971 0
-0.0600398 -0.00844559 0
-0.0554277 -0.0114127 0
-0.049545 -0.0138532 0
-0.0426424 -0.0155236 0
-0.0350657 -0.0162156 0
-0.0272434 -0.0157934 0
-0.0196598 -0.0142323 0
-0.01281 -0.0116513 0
-0.00713657 -0.00832953 0
-0.00295512 -0.00469449 0
-0.00038489 -0.00128289 0
0.000701217 0.00131557 0
0.000695619 0.00251067 0
0.000242789 0.00170887 0
-0.000633001 0.00163206 0
-0.00287577 0.0056098 0
-0.00681881 0.00931165 0
-0.0120104 0.0123591 0
-0.0181041 0.0147081 0
-0.0248381 0.0164406 0
-0.0320022 0.0176422 0
-0.0394055 0.0183502 0
-0.0468551 0.0185487 0
-0.0541446 0.0181848 0
-0.0610519 0.0171928 0
-0.0673441 0.0155157 0
-0.0727862 0.013122 0
-0.0771512 0.0100182 0
-0.0802321 0.00625678 0
-0.0818522 0.00194093 0
-0.081876 -0.00277324 0
-0.0802155 -0.00768138 0
-0.0768381 -0.0125268 0
-0.0717824 -0.0169993 0
-0.065176 -0.0207558 0
-0.0572498 -0.0234496 0
-0.048346 -0.02477 0
-0.0389155 -0.0244919 0
-0.029499 -0.022534 0
-0.0206851 -0.0190133 0
-0.0130421 -0.0142839 0
-0.00702721 -0.00893642 0
-0.00289008 -0.00374834 0
-0.000598653 0.000403474 0
0.000195546 0.00263416 0
0.000141048 0.0020927 0
-0.000868727 0.00313379 0
-0.00384907 0.00933118 0
-0.00892539 0.0146096 0
-0.0154324 0.0187598 0
-0.0229084 0.0218771 0
-0.0310354 0.0241327 0
-0.0395749 0.0256537 0
-0.0483186 0.0264858 0
-0.0570587 0.0266029 0
-0.0655755 0.0259367 0
-0.0736352 0.0244079 0
-0.0809958 0.0219534 0
-0.0874147 0.0185452 0
-0.0926581 0.0142034 0
-0.0965098 0.00900413 0
-0.0987798 0.00308361 0
-0.0993114 -0.00336053 0
-0.0979856 -0.0100803 0
-0.0947269 -0.0167639 0
-0.0895226 -0.0230221 0
-0.0824492 -0.0284128 0
-0.073694 -0.032474 0
-0.0635735 -0.0347699 0
-0.0525424 -0.0349536 0
-0.041187 -0.0328442 0
-0.0301926 -0.0285114 0
-0.0202745 -0.0223469 0
-0.0120716 -0.0150912 0
-0.00601705 -0.00778523 0
-0.0022229 -0.00164521 0
-0.000421474 0.00208722 0
1.94579e-05 0.00225321 0
-0.0010975 0.00510001 0
-0.0047883 0.0140361 0
-0.0109474 0.0211401 0
-0.0187019 0.0264909 0
-0.0274805 0.0304007 0
-0.0369145 0.03317 0
-0.0467434 0.0349848 0
-0.0567496 0.0359046 0
-0.0667208 0.0358955 0
-0.0764348 0.0348748 0
-0.0856569 0.0327516 0
-0.0941441 0.0294575 0
-0.101651 0.0249671 0
-0.107937 0.0193112 0
-0.112773 0.0125836 0
-0.115945 0.00494572 0
-0.117262 -0.00337324 0
-0.116564 -0.0120914 0
-0.11372 -0.0208558 0
-0.108651 -0.0292035 0
-0.101365 -0.0365914 0
-0.091984 -0.0424312 0
-0.0807772 -0.0461401 0
-0.0681792 -0.0472125 0
-0.054803 -0.0453168 0
-0.0414232 -0.040413 0
-0.0289163 -0.0328704 0
-0.0181438 -0.0235431 0
-0.00978564 -0.013746 0
-0.00416616 -0.00509803 0
-0.00114528 0.000717729 0
-0.000118089 0.00215458 0
-0.00130922 0.00750674 0
-0.00565261 0.0196636 0
-0.0127995 0.0288185 0
-0.0216878 0.0354553 0
-0.0316497 0.0401768 0
-0.0422739 0.043452 0
-0.0532855 0.0455433 0
-0.0644651 0.0465318 0
-0.0756041 0.0463785 0
-0.0864863 0.044988 0
-0.0968831 0.0422574 0
-0.106555 0.0381111 0
-0.115256 0.0325216 0
-0.122736 0.0255228 0
-0.128746 0.0172171 0
-0.133042 0.00777992 0
-0.135392 -0.00253896 0
-0.135587 -0.0134285 0
-0.133438 -0.0245125 0
-0.128791 -0.0352624 0
-0.121574 -0.0450359 0
-0.111828 -0.0531133 0
-0.0997462 -0.0587469 0
-0.0857123 -0.0612376 0
-0.0703335 -0.0600467 0
-0.054449 -0.0549475 0
-0.0390921 -0.0461997 0
-0.0253782 -0.0347003 0
-0.0143027 -0.0220225 0
-0.00649081 -0.0102529 0
-0.00199943 -0.00163966 0
-0.00027557 0.00176092 0
-0.00149306 0.010309 0
-0.00640063 0.0261122 0
-0.0143993 0.0375153 0
-0.0242663 0.0455138 0
-0.0352538 0.0510676 0
-0.0469179 0.0548496 0
-0.0589759 0.0572155 0
-0.0712125 0.0582757 0
-0.0834289 0.0579899 0
-0.0954206 0.0562504 0
-0.106969 0.0529406 0
-0.117842 0.0479728 0
-0.127792 0.0413101 0
-0.136557 0.0329797 0
-0.143869 0.0230813 0
-0.14945 0.011793 0
-0.153027 -0.000624926 0
-0.154339 -0.0138345 0
-0.153144 -0.0274519 0
-0.149217 -0.0408969 0
-0.142397 -0.0534381 0
-0.132626 -0.0642273 0
-0.119998 -0.0723438 0
-0.104805 -0.0768677 0
-0.0876009 -0.0769989 0
-0.069244 -0.0722368 0
-0.0508945 -0.0626168 0
-0.0339285 -0.0489631 0
-0.0197194 -0.0330442 0
-0.00930051 -0.017462 0
-0.00303196 -0.00519052 0
-0.0004647 0.00102065 0
-0.00163801 0.0134401 0
-0.00699182 0.0332426 0
-0.015668 0.0470599 0
-0.02632 0.0564882 0
-0.0381383 0.0628991 0
-0.0506552 0.0671992 0
-0.0635848 0.0698536 0
-0.0767199 0.0710093 0
-0.0898752 0.0706281 0
-0.102861 0.0685899 0
-0.115473 0.0647616 0
-0.127485 0.0590373 0
-0.138652 0.0513621 0
-0.148705 0.0417464 0
-0.157355 0.0302761 0
-0.164298 0.0171219 0
-0.169222 0.00254648 0
-0.171824 -0.013091 0
-0.171812 -0.029403 0
-0.168902 -0.0457824 0
-0.162848 -0.0614274 0
-0.153479 -0.0753764 0
-0.140761 -0.0865417 0
-0.124855 -0.0937694 0
-0.106202 -0.0959533 0
-0.0856111 -0.0922302 0
-0.0643085 -0.0822754 0
-0.0439045 -0.0666745 0
-0.0261892 -0.0472572 0
-0.0127191 -0.0271379 0
-0.00430497 -0.0101973 0
-0.000700394 -0.000144445 0
-0.00173387 0.016812 0
-0.00738911 0.0408797 0
-0.0165346 0.0572444 0
-0.0277427 0.0681637 0
-0.040161 0.0754602 0
-0.0533044 0.0802984 0
-0.0668864 0.083266 0
-0.0807089 0.0845546 0
-0.0946018 0.0841311 0
-0.108392 0.0818633 0
-0.12189 0.0775981 0
-0.134883 0.071206 0
-0.147129 0.0626065 0
-0.158358 0.0517843 0
-0.168273 0.0388026 0
-0.176551 0.0238159 0
-0.182856 0.00708122 0
-0.186848 -0.0110322 0
-0.188202 -0.0301193 0
-0.186594 -0.0495831 0
-0.181695 -0.0685804 0
-0.173222 -0.0860648 0
-0.160989 -0.100805 0
-0.144983 -0.111419 0
-0.125471 -0.116469 0
-0.103125 -0.114651 0
-0.0791467 -0.105135 0
-0.0553113 -0.0880546 0
-0.0338228 -0.0650809 0
-0.0168652 -0.0397419 0
-0.00588493 -0.0169877 0
-0.000999332 -0.00184417 0
-0.00177233 0.0203182 0
-0.00756241 0.0488188 0
-0.0169408 0.0678291 0
-0.0284465 0.0802928 0
-0.0412017 0.0885046 0
-0.0547077 0.0939035 0
-0.0686768 0.097212 0
-0.0829195 0.0986738 0
-0.0972801 0.0982652 0
-0.111603 0.0958424 0
-0.125716 0.0912303 0
-0.139422 0.084272 0
-0.152492 0.0748564 0
-0.164665 0.0629367 0
-0.175647 0.0485474 0
-0.185117 0.0318194 0
-0.19273 0.0129955 0
-0.198127 -0.00755775 0
-0.200969 -0.0293973 0
-0.200905 -0.0519768 0
-0.197543 -0.0744478 0
-0.190492 -0.0957221 0
-0.179404 -0.114468 0
-0.164058 -0.129108 0
-0.144477 -0.137873 0
-0.121107 -0.138964 0
-0.095006 -0.130901 0
-0.0679996 -0.11313 0
-0.0426477 -0.086846 0
-0.0218292 -0.0557529 0
-0.00783456 -0.0259516 0
-0.00137849 -0.00422199 0
-0.00174807 0.0238386 0
-0.0074922 0.0568326 0
-0.0168481 0.0785496 0
-0.028371 0.092601 0
-0.041174 0.101754 0
-0.0547466 0.107732 0
-0.0687971 0.111403 0
-0.0831412 0.11307 0
-0.0976358 0.112724 0
-0.112143 0.110213 0
-0.12651 0.10534 0
-0.140561 0.097919 0
-0.154089 0.0878072 0
-0.166855 0.0749247 0
-0.178587 0.059274 0
-0.188982 0.0409585 0
-0.197713 0.0202 0
-0.204431 -0.00264702 0
-0.208794 -0.0271031 0
-0.210441 -0.052688 0
-0.208947 -0.0785927 0
-0.203831 -0.103745 0
-0.194586 -0.126777 0
-0.180757 -0.145976 0
-0.162068 -0.159275 0
-0.138641 -0.16436 0
-0.111257 -0.15899 0
-0.0816378 -0.141667 0
-0.0525779 -0.112721 0
-0.0276545 -0.0756198 0
-0.0102068 -0.037527 0
-0.00185447 -0.00745495 0
-0.00165984 0.0272465 0
-0.00717285 0.0646819 0
-0.0162431 0.0891265 0
-0.027492 0.104796 0
-0.0400383 0.114909 0
-0.05336 0.121472 0
-0.0671564 0.12551 0
-0.0812443 0.127395 0
-0.0954903 0.12714 0
-0.109773 0.124588 0
-0.123964 0.119523 0
-0.137911 0.111735 0
-0.151442 0.10105 0
-0.164351 0.0873575 0
-0.176408 0.0706302 0
-0.187353 0.050943 0
-0.196899 0.0284925 0
-0.204735 0.00361405 0
-0.210532 -0.0232041 0
-0.213945 -0.0515266 0
-0.214556 -0.0806377 0
-0.211822 -0.10955 0
-0.205094 -0.136943 0
-0.193675 -0.161058 0
-0.176949 -0.179606 0
-0.154625 -0.189781 0
-0.127067 -0.188511 0
-0.0957097 -0.173123 0
-0.0633965 -0.142638 0
-0.0343228 -0.0996995 0
-0.0130391 -0.0521787 0
-0.00244264 -0.0117521 0
-0.00151105 0.0304174 0
-0.00661525 0.0721282 0
-0.0151432 0.0992783 0
-0.0258291 0.116579 0
-0.0378121 0.127655 0
-0.0505578 0.134793 0
-0.0637515 0.139179 0
-0.0772054 0.141267 0
-0.0907931 0.141101 0
-0.10441 0.138526 0
-0.117951 0.133315 0
-0.131298 0.125237 0
-0.144317 0.114096 0
-0.156852 0.099756 0
-0.168729 0.0821657 0
-0.179752 0.0613755 0
-0.189702 0.0375559 0
-0.198329 0.0110135 0
-0.205344 -0.0177918 0
-0.210448 -0.0484213 0
-0.213269 -0.0803118 0
-0.213244 -0.112635 0
-0.209614 -0.144216 0
-0.201455 -0.173365 0
-0.187794 -0.197685 0
-0.167856 -0.213964 0
-0.141455 -0.218286 0
-0.109537 -0.206622 0
-0.0747554 -0.176234 0
-0.0417451 -0.128188 0
-0.01635 -0.0703686 0
-0.003157 -0.0173517 0
-0.00131019 0.0332386 0
-0.00584811 0.0789491 0
-0.0135988 0.108736 0
-0.0234507 0.127659 0
-0.034577 0.139685 0
-0.0464305 0.147363 0
-0.0586779 0.15205 0
-0.071122 0.154294 0
-0.0836408 0.154181 0
-0.0961457 0.151569 0
-0.108558 0.146226 0
-0.120797 0.137912 0
-0.132773 0.126416 0
-0.144389 0.111587 0
-0.155537 0.0933596 0
-0.1661 0.0717684 0
-0.175949 0.0469616 0
-0.184926 0.0192114 0
-0.192824 -0.011077 0
-0.199416 -0.0434391 0
-0.204395 -0.077494 0
-0.207233 -0.11264 0
-0.207117 -0.147956 0
-0.202939 -0.181962 0
-0.193377 -0.212311 0
-0.177135 -0.23552 0
-0.153366 -0.246901 0
-0.122324 -0.240966 0
-0.0861901 -0.212805 0
-0.0497616 -0.161056 0
-0.0201374 -0.0925205 0
-0.00401075 -0.0245195 0
-0.00107059 0.0356194 0
-0.00491808 0.0849537 0
-0.0116952 0.117259 0
-0.0204759 0.137768 0
-0.0304807 0.150706 0
-0.0411514 0.158865 0
-0.0521322 0.163776 0
-0.063214 0.166094 0
-0.0742772 0.165963 0
-0.08525 0.163264 0
-0.0960828 0.157776 0
-0.106734 0.149253 0
-0.117166 0.137482 0
-0.12734 0.12231 0
-0.137223 0.103667 0
-0.146784 0.0815857 0
-0.155994 0.0562025 0
-0.164809 0.0277622 0
-0.173151 -0.00338747 0
-0.180886 -0.0368011 0
-0.187791 -0.0722481 0
-0.193431 -0.109409 0
-0.197011 -0.147723 0
-0.19731 -0.186075 0
-0.192708 -0.22236 0
-0.181389 -0.253032 0
-0.161766 -0.272782 0
-0.133219 -0.274673 0
-0.0971496 -0.251302 0
-0.0581493 -0.197988 0
-0.0243814 -0.118981 0
-0.00501861 -0.0335488 0
-0.000809962 0.0374999 0
-0.00388863 0.0899993 0
-0.00955074 0.124653 0
-0.0170733 0.146678 0
-0.0257357 0.160464 0
-0.0349719 0.169015 0
-0.0444046 0.17404 0
-0.0538118 0.176319 0
-0.063077 0.176067 0
-0.0721479 0.173204 0
-0.0810072 0.167528 0
-0.0896569 0.158802 0
-0.0981112 0.146819 0
-0.106395 0.131432 0
-0.114548 0.112581 0
-0.122624 0.0903093 0
-0.130696 0.0647599 0
-0.138841 0.0361659 0
-0.14712 0.00482978 0
-0.15552 -0.0288839 0
-0.163939 -0.0648409 0
-0.172085 -0.103031 0
-0.17926 -0.143345 0
-0.184225 -0.185188 0
-0.185158 -0.226916 0
-0.179774 -0.265179 0
-0.165728 -0.294305 0
-0.141376 -0.306049 0
-0.107033 -0.29034 0
-0.066637 -0.238346 0
-0.0290523 -0.149974 0
-0.00620129 -0.0447687 0
-0.000549634 0.0388595 0
-0.0028383 0.094007 0
-0.00731529 0.130784 0
-0.0134586 0.154212 0
-0.0206132 0.168746 0
-0.0282133 0.177569 0
-0.0358642 0.18257 0
-0.0433348 0.184667 0
-0.0505164 0.184165 0
-0.0573804 0.18104 0
-0.0639468 0.175118 0
-0.0702652 0.166181 0
-0.0764057 0.154035 0
-0.0824564 0.13855 0
-0.088525 0.119684 0
-0.0947441 0.0975017 0
-0.101274 0.0721694 0
-0.108303 0.0439304 0
-0.116018 0.0130597 0
-0.12455 -0.0201824 0
-0.133947 -0.0557265 0
-0.144086 -0.0938601 0
-0.154449 -0.134978 0
-0.163902 -0.179137 0
-0.170553 -0.225383 0
-0.171777 -0.270872 0
-0.164514 -0.309922 0
-0.146016 -0.333281 0
-0.115226 -0.328241 0
-0.0749222 -0.281145 0
-0.0341216 -0.185561 0
-0.00759211 -0.0585621 0
-0.000313996 0.0397232 0
-0.0018595 0.0969776 0
-0.00516834 0.1356 0
-0.00989069 0.160263 0
-0.0154381 0.175398 0
-0.0212548 0.184334 0
-0.0269404 0.189141 0
-0.0322647 0.190891 0
-0.0371353 0.189994 0
-0.0415552 0.186496 0
-0.0455883 0.180262 0
-0.0493369 0.171104 0
-0.0529304 0.158847 0
-0.05652 0.143379 0
-0.0602794 0.124683 0
-0.0644074 0.10285 0
-0.0691341 0.0780782 0
-0.0747241 0.0506398 0
-0.0814685 0.0208102 0
-0.0896414 -0.011228 0
-0.0994379 -0.045488 0
-0.110908 -0.0824888 0
-0.123773 -0.123121 0
-0.137136 -0.168179 0
-0.149224 -0.217602 0
-0.157263 -0.269391 0
-0.157624 -0.318304 0
-0.146462 -0.354558 0
-0.12112 -0.363095 0
-0.0826806 -0.325033 0
-0.0395716 -0.225583 0
-0.00924385 -0.0753981 0
-0.000130699 0.0401679 0
-0.00105924 0.0990069 0
-0.00331999 0.13914 0
-0.00667171 0.164797 0
-0.0105825 0.180323 0
-0.0145214 0.189165 0
-0.0181028 0.193577 0
-0.0211158 0.194792 0
-0.0234987 0.193346 0
-0.0252975 0.189362 0
-0.0266282 0.182759 0
-0.027651 0.173378 0
-0.0285576 0.161072 0
-0.0295643 0.14575 0
-0.0309083 0.127416 0
-0.0328484 0.106185 0
-0.0356676 0.0822885 0
-0.0396784 0.0560304 0
-0.0452262 0.0277119 0
-0.0526771 -0.00250593 0
-0.0623421 -0.0347485 0
-0.0744252 -0.0696749 0
-0.0889082 -0.108586 0
-0.105244 -0.153015 0
-0.121989 -0.203933 0
-0.136491 -0.26052 0
-0.144813 -0.318491 0
-0.142148 -0.368198 0
-0.124112 -0.392834 0
-0.0895545 -0.368291 0
-0.0453926 -0.269596 0
-0.0112318 -0.0958737 0
-3.26014e-05 0.0403312 0
-0.000564794 0.100304 0
-0.00201766 0.141556 0
-0.0041498 0.167864 0
-0.00646276 0.183479 0
-0.00847244 0.191958 0
-0.00984075 0.195734 0
-0.010405 0.196212 0
-0.010157 0.194061 0
-0.00920135 0.189491 0
-0.00771545 0.182475 0
-0.00592243 0.172892 0
-0.00407884 0.160622 0
-0.0024666 0.145595 0
-0.00138614 0.127834 0
-0.00115271 0.107473 0
-0.00209352 0.0847605 0
-0.00454662 0.0600223 0
-0.00886383 0.033585 0
-0.0154167 0.00562462 0
-0.0245655 -0.0240652 0
-0.0366146 -0.0562259 0
-0.0517657 -0.0924012 0
-0.0698812 -0.134749 0
-0.0900452 -0.18529 0
-0.110056 -0.24465 0
-0.126052 -0.310042 0
-0.132575 -0.37279 0
-0.123544 -0.415309 0
-0.0951041 -0.408813 0
-0.0515547 -0.316785 0
-0.0136472 -0.120753 0
-6.32517e-05 0.040427 0
-0.000538545 0.101216 0
-0.00156328 0.143122 0
-0.00272973 0.169597 0
-0.00353888 0.184868 0
-0.00358823 0.192627 0
-0.00263812 0.195483 0
-0.000617089 0.195007 0
0.00239863 0.192002 0
0.00622528 0.186767 0
0.0106111 0.179327 0
0.01526 0.169598 0
0.0198473 0.157485 0
0.0240281 0.142939 0
0.0274446 0.125994 0
0.0297338 0.106791 0
0.0305371 0.08558 0
0.0295113 0.0626818 0
0.0263356 0.0384185 0
0.020709 0.0129705 0
0.0123148 -0.0138681 0
0.000819173 -0.0428782 0
-0.0141272 -0.0756514 0
-0.0327476 -0.114763 0
-0.0547668 -0.163092 0
-0.0787624 -0.222841 0
-0.101444 -0.293173 0
-0.117227 -0.367354 0
-0.118613 -0.42839 0
-0.0987033 -0.444082 0
-0.0579361 -0.365833 0
-0.0165742 -0.150974 0
-0.000289031 0.0407793 0
-0.00120866 0.102259 0
-0.00234548 0.144241 0
-0.00289018 0.170189 0
-0.00231083 0.184506 0
-0.00034693 0.191075 0
0.00307075 0.192667 0
0.00785443 0.191018 0
0.0137912 0.187039 0
0.0205965 0.181099 0
0.0279378 0.173269 0
0.03545 0.163495 0
0.0427472 0.151703 0
0.0494314 0.137855 0
0.0550995 0.121992 0
0.0593547 0.104249 0
0.0618206 0.0848535 0
0.0621574 0.0640972 0
0.0600747 0.0422614 0
0.0553319 0.0194969 0
0.0477071 -0.00437544 0
0.0369618 -0.0301299 0
0.0228121 -0.0593036 0
0.00483879 -0.0945174 0
-0.0173712 -0.139109 0
-0.043412 -0.196788 0
-0.0710877 -0.268868 0
-0.0954453 -0.351517 0
-0.108198 -0.430088 0
-0.0993614 -0.47113 0
-0.0641879 -0.414725 0
-0.0200416 -0.18759 0
-0.000823248 0.0418916 0
-0.00292406 0.104167 0
-0.00488771 0.145433 0
-0.00519934 0.169853 0
-0.00330083 0.182364 0
0.000814571 0.187138 0
0.0069219 0.187079 0
0.0146914 0.184052 0
0.0237358 0.179023 0
0.0336491 0.172395 0
0.0440149 0.164265 0
0.0544076 0.154594 0
0.0643959 0.143319 0
0.0735464 0.130405 0
0.081432 0.115889 0
0.0876435 0.0998854 0
0.091806 0.0825883 0
0.093597 0.0642346 0
0.0927611 0.0450427 0
0.0891113 0.0251083 0
0.0825042 0.00424522 0
0.0727661 -0.0182672 0
0.0596401 -0.0438907 0
0.0427398 -0.0750568 0
0.0215567 -0.115177 0
-0.00447264 -0.16865 0
-0.0348837 -0.238919 0
-0.0662689 -0.325724 0
-0.0906539 -0.418744 0
-0.0954524 -0.486512 0
-0.0695055 -0.460464 0
-0.0239359 -0.231567 0
-0.00186933 0.0445842 0
-0.00623673 0.107942 0
-0.00989044 0.147275 0
-0.0102866 0.168719 0
-0.00697242 0.178285 0
-0.000398184 0.180527 0
0.00876 0.178425 0
0.0198416 0.173856 0
0.0322502 0.167767 0
0.0454509 0.160538 0
0.0589524 0.152255 0
0.0722875 0.142876 0
0.0850022 0.132334 0
0.0966541 0.120588 0
0.106818 0.107657 0
0.115098 0.0936264 0
0.121141 0.0786418 0
0.124656 0.0628747 0
0.125426 0.0464685 0
0.123306 0.029452 0
0.118201 0.0116139 0
0.109995 -0.00769156 0
0.0984462 -0.0297916 0
0.0831438 -0.0569534 0
0.0634767 -0.0924297 0
0.0385992 -0.14049 0
0.00774742 -0.205816 0
-0.0282632 -0.291431 0
-0.0635711 -0.393344 0
-0.0843389 -0.486346 0
-0.0722619 -0.498654 0
-0.0278528 -0.283356 0
-0.00378601 0.0502395 0
-0.0119788 0.114847 0
-0.018164 0.150209 0
-0.0186123 0.16663 0
-0.0133817 0.17183 0
-0.00370975 0.170736 0
0.00910438 0.166243 0
0.0239981 0.160062 0
0.0401512 0.152999 0
0.0569178 0.145338 0
0.0737602 0.13711 0
0.0901999 0.128246 0
0.105792 0.118657 0
0.120116 0.108288 0
0.132776 0.0971312 0
0.143414 0.0852335 0
0.151721 0.0726854 0
0.157446 0.0595907 0
0.16041 0.0460187 0
0.160497 0.0319342 0
0.157634 0.0170997 0
0.151729 0.000933721 0
0.142543 -0.0176817 0
0.129616 -0.0408341 0
0.112201 -0.0714664 0
0.0891411 -0.113517 0
0.058978 -0.171775 0
0.0207089 -0.251192 0
-0.0235563 -0.35401 0
-0.0618908 -0.466578 0
-0.0694209 -0.522968 0
-0.0308314 -0.34204 0
-0.00714175 0.0611673 0
-0.0211559 0.126127 0
-0.0300872 0.154046 0
-0.0295636 0.162717 0
-0.0210449 0.161993 0
-0.00700455 0.15686 0
0.0105021 0.149798 0
0.0300085 0.142107 0
0.0505141 0.134295 0
0.0713214 0.126468 0
0.0918983 0.118561 0
0.111799 0.110454 0
0.130625 0.102031 0
0.148008 0.0932078 0
0.163612 0.0839472 0
0.177136 0.0742553 0
0.188324 0.0641694 0
0.196974 0.0537319 0
0.202937 0.0429507 0
0.206108 0.031743 0
0.206402 0.0198599 0
0.203698 0.00678254 0
0.197773 -0.00841875 0
0.188115 -0.0275121 0
0.173768 -0.0530267 0
0.153236 -0.0883638 0
0.124411 -0.137941 0
0.0849477 -0.207294 0
0.0339145 -0.30261 0
-0.0219418 -0.423788 0
-0.0555753 -0.524595 0
-0.0308533 -0.403725 0
-0.0125464 0.0808554 0
-0.0339051 0.141811 0
-0.0433486 0.156736 0
-0.0384024 0.154557 0
-0.0234522 0.146684 0
-0.00259817 0.137275 0
0.021397 0.127881 0
0.0468274 0.119087 0
0.0726829 0.110954 0
0.0983289 0.103356 0
0.123318 0.096108 0
0.147293 0.0890318 0
0.169943 0.0819773 0
0.190986 0.0748353 0
0.210162 0.0675391 0
0.227243 0.0600587 0
0.242033 0.0523882 0
0.254372 0.044524 0
0.264135 0.0364334 0
0.271211 0.0280119 0
0.275484 0.0190246 0
0.27678 0.00902621 0
0.274802 -0.00275948 0
0.26896 -0.0176713 0
0.258126 -0.0376872 0
0.240444 -0.0654882 0
0.213206 -0.104754 0
0.172946 -0.160756 0
0.116333 -0.241501 0
0.0442794 -0.356986 0
-0.0213252 -0.492159 0
-0.0238153 -0.458393 0
-0.0191468 0.112549 0