# vtk DataFile Version 2.0
Lid-driven cavity
ASCII
DATASET STRUCTURED_POINTS
DIMENSIONS 32 32 1
ORIGIN 0.015625 0.015625 0
SPACING 0.03125 0.03125 1
POINT_DATA 1024
SCALARS pressure double 1
LOOKUP_TABLE default
14.9273
14.8501
14.7345
14.624
14.5424
14.5006
14.5026
14.5506
14.6471
14.7954
14.9996
15.263
15.5877
15.9727
16.413
16.8988
17.4147
17.9409
18.4519
18.9194
19.3147
19.6135
19.7988
19.8649
19.8188
19.6799
19.4775
19.2467
19.0245
18.8457
18.739
18.7182
15.0045
14.9246
14.8313
14.7481
14.6899
14.6647
14.6765
14.7282
14.8227
14.9635
15.1545
15.3989
15.6986
16.0527
16.4571
16.9027
17.376
17.8591
18.329
18.7595
19.1247
19.4023
19.5774
19.6453
19.6133
19.4999
19.332
19.1403
18.9559
18.8069
18.7155
18.6974
15.1237
15.012
14.9155
14.8421
14.7966
14.7814
14.7983
14.8492
14.9369
15.0654
15.2388
15.4612
15.7352
16.0614
16.4367
16.854
17.301
17.7611
18.2121
18.6283
18.9834
19.255
19.4275
19.4961
19.4679
19.3615
19.2035
19.0238
18.8509
18.7091
18.6178
18.592
15.2355
15.081
14.9685
14.8934
14.8513
14.8388
14.8541
14.8979
14.9726
15.0826
15.2329
15.4289
15.6752
15.9741
16.325
16.7226
17.1563
17.6097
18.0605
18.4821
18.8464
19.1284
19.31
19.3845
19.3577
19.2485
19.0844
18.8965
18.714
18.5604
18.4536
18.4073
15.2992
15.0996
14.9655
14.8817
14.8355
14.8179
14.824
14.8528
14.9066
14.9901
15.11
15.2735
15.4875
15.7572
16.0847
16.4674
16.897
17.3565
17.8235
18.2696
18.6638
18.9767
19.1855
19.2788
19.2598
19.1464
18.9675
18.7572
18.5478
18.3652
18.2283
18.151
15.2792
15.0358
14.8785
14.7816
14.7251
14.6948
14.683
14.6876
14.7106
14.7578
14.8374
14.9591
15.1328
15.367
15.6674
16.0348
16.4642
16.9387
17.4361
17.9264
18.3746
18.7449
19.0073
19.1428
19.1486
19.0392
18.8445
18.6026
18.3519
18.1243
17.9432
17.8253
15.1422
14.858
14.6774
14.5646
14.492
14.4412
14.4022
14.3717
14.352
14.3501
14.3761
14.4424
14.5624
14.7488
15.0114
15.356
15.7817
16.2743
16.8132
17.3674
17.8972
18.3594
18.7131
18.9275
18.9888
18.9046
18.7029
18.4265
18.1228
17.8345
17.594
17.4248
14.8567
14.5353
14.3321
14.2006
14.1063
14.0267
13.9497
13.8713
13.7944
13.7268
13.6809
13.6721
13.7178
13.8355
14.0407
14.3449
14.7535
15.2587
15.8443
16.4799
17.1222
17.7185
18.2141
18.5608
18.7274
18.7072
18.5219
18.2174
17.8533
17.4888
17.172
16.9373
14.3925
14.0382
13.8131
13.66
13.5376
13.4197
13.2923
13.1509
12.9984
12.8438
12.7016
12.5904
12.5321
12.5499
12.6662
12.9002
13.265
13.7646
14.3921
15.1211
15.9062
16.6854
17.3867
17.9386
18.2835
18.3907
18.2667
17.9559
17.5315
17.0764
16.6634
16.345
13.7225
13.3401
13.0934
12.915
12.7572
12.5901
12.3979
12.1751
11.9247
11.6564
11.3864
11.1368
10.9343
10.8087
10.7912
10.9107
11.1905
11.6489
12.2982
13.1211
14.0737
15.086
16.0672
16.9167
17.5401
17.8693
17.8815
17.6098
17.139
16.5828
16.0513
15.6259
12.8239
12.4188
12.1505
11.9423
11.7404
11.5115
11.2378
10.9126
10.5378
10.1236
9.68761
9.25479
8.85715
8.53239
8.32181
8.267
8.40547
8.76671
9.397
10.296
11.4272
12.7166
14.0554
15.3098
16.3387
17.0202
17.2824
17.1294
16.6486
15.9898
15.3165
14.7549
11.6802
11.2581
10.968
10.7248
10.4693
10.165
9.79149
9.34018
8.81168
8.21529
7.56928
6.90134
6.24878
5.65784
5.18183
4.87753
4.79985
4.99471
5.53932
6.47178
7.77002
9.36313
11.1291
12.9005
14.4818
15.6808
16.3517
16.4418
16.0218
15.2758
14.4387
13.7061
10.2831
9.85034
9.53807
9.2544
8.93555
8.54172
8.0498
7.4484
6.7357
5.91922
5.0169
4.05836
3.08598
2.15503
1.33214
0.691712
0.309565
0.253583
0.622512
1.51742
2.94065
4.83456
7.0732
9.46149
11.7477
13.6554
14.9377
15.4482
15.2063
14.416
13.3996
12.4559
8.63361
8.19688
7.86242
7.53348
7.14253
6.6466
6.01938
5.24597
4.32098
3.24901
2.04644
0.743802
-0.612091
-1.95708
-3.21043
-4.27824
-5.06036
-5.46093
-5.37328
-4.6153
-3.14484
-0.993729
1.72231
4.79364
7.91941
10.7333
12.863
14.0248
14.1356
13.3843
12.1869
10.9876
6.74328
6.30924
5.9534
5.57613
5.10702
4.50007
3.72533
2.7636
1.60492
0.249673
-1.2886
-2.97972
-4.77355
-6.59779
-8.35774
-9.93934
-11.216
-12.06
-12.3545
-11.8552
-10.4501
-8.13219
-4.98948
-1.22564
2.82781
6.72229
9.94547
12.0332
12.733
12.1571
10.8001
9.29852
4.6333
4.20844
3.83352
3.40799
2.85944
2.13888
1.21233
0.0556168
-1.3468
-2.99989
-4.89426
-7.00147
-9.2695
-11.6192
-13.9433
-16.1081
-17.9608
-19.3413
-20.1006
-19.9884
-18.7871
-16.4373
-12.981
-8.59
-3.59621
1.49415
6.03255
9.34084
10.9222
10.7209
9.26055
7.41043
2.33324
1.92341
1.53375
1.06471
0.442428
-0.385128
-1.45641
-2.80129
-4.44168
-6.38889
-8.63882
-11.1661
-13.9185
-16.8117
-19.7277
-22.5155
-24.9978
-26.9826
-28.2828
-28.6602
-27.8082
-25.5923
-21.9931
-17.1218
-11.2716
-4.96353
1.04612
5.85375
8.64753
9.08572
7.62515
5.38427
-0.121872
-0.512024
-0.909422
-1.41103
-2.09199
-3.00794
-4.20253
-5.71202
-7.56546
-9.78125
-12.3615
-15.2849
-18.5003
-21.9206
-25.4192
-28.8313
-31.9583
-34.5801
-36.4727
-37.4039
-37.027
-35.1203
-31.5871
-26.4543
-19.9332
-12.5018
-4.96865
1.55899
5.90418
7.30683
6.00666
3.34179
-2.6954
-3.06321
-3.45821
-3.97364
-4.68664
-5.65787
-6.93756
-8.5694
-10.5903
-13.0261
-15.8857
-19.1527
-22.7779
-26.6729
-30.7056
-34.7007
-38.4438
-41.6926
-44.1933
-45.7003
-45.8768
-44.4344
-41.1832
-36.0508
-29.1279
-20.7848
-11.8022
-3.42988
2.77831
5.51617
4.60377
1.49776
-5.35401
-5.6997
-6.07852
-6.5795
-7.28401
-8.26076
-9.56911
-11.2618
-13.3844
-15.9707
-19.036
-22.5688
-26.5225
-30.8086
-35.2917
-39.7895
-44.0774
-47.8983
-50.9782
-53.0458
-53.7971
-52.9196
-50.1362
-45.2651
-38.2513
-29.2969
-19.06
-8.83314
-0.507146
3.96646
3.74535
0.209842
-8.07339
-8.40119
-8.74554
-9.19199
-9.83099
-10.745
-12.0068
-13.6809
-15.8224
-18.4729
-21.6535
-25.3569
-29.5387
-34.1104
-38.9352
-43.8271
-48.5556
-52.8554
-56.4418
-59.0264
-60.3225
-60.0316
-57.8355
-53.4355
-46.6239
-37.3897
-26.1738
-14.1828
-3.54754
3.08736
3.95522
0.0553375
-10.845
-11.1643
-11.4496
-11.7862
-12.2828
-13.0455
-14.1675
-15.7285
-17.7942
-20.4132
-23.6111
-27.3827
-31.6843
-36.4276
-41.4749
-46.6389
-51.6869
-56.3512
-60.3432
-63.369
-65.142
-65.391
-63.8046
-59.9907
-53.5916
-44.3622
-32.4479
-18.8273
-5.72177
3.55055
6.04188
1.94511
-13.685
-14.0114
-14.2026
-14.3526
-14.6054
-15.106
-15.9783
-17.3214
-19.2119
-21.7036
-24.8234
-28.5661
-32.8873
-37.697
-42.8558
-48.1752
-53.4226
-58.3315
-62.6151
-65.9811
-68.1416
-68.8345
-67.7754
-64.5382
-58.6245
-49.5565
-37.1325
-21.9658
-6.17806
6.33473
11.2124
7.2813
-16.648
-17.0031
-17.0457
-16.9001
-16.7755
-16.8794
-17.3786
-18.3959
-20.0186
-22.3021
-25.2706
-28.9143
-33.1831
-37.982
-43.1677
-48.5497
-53.8952
-58.9399
-63.401
-66.9915
-69.429
-70.4389
-69.7263
-66.9057
-61.3827
-52.4356
-39.5013
-22.7048
-3.84705
12.7751
21.2002
18.1583
-19.8527
-20.2592
-20.0595
-19.4576
-18.779
-18.3255
-18.3206
-18.9104
-20.1869
-22.2008
-24.9674
-28.4663
-32.6376
-37.3779
-42.5377
-47.9226
-53.2989
-58.4033
-62.9559
-66.6729
-69.2749
-70.4798
-69.9431
-67.2337
-61.7314
-52.6139
-38.9026
-20.112
2.5201
24.5782
38.382
37.5982
-23.5358
-23.9989
-23.3805
-22.0745
-20.6048
-19.4052
-18.7628
-18.8362
-19.7103
-21.4202
-23.963
-27.3013
-31.3606
-36.0257
-41.1386
-46.4999
-51.873
-56.9937
-61.5812
-65.349
-68.0109
-69.2764
-68.7545
-65.9004
-59.9906
-49.9961
-34.7646
-13.2433
14.3037
43.782
65.8508
69.8078
-28.1743
-28.6173
-27.2253
-24.8153
-22.2332
-20.0722
-18.6666
-18.1613
-18.6098
-20.0149
-22.3447
-25.5371
-29.4986
-34.0994
-39.1716
-44.5089
-49.8708
-54.9896
-59.5789
-63.3417
-65.9733
-67.1535
-66.4727
-63.2094
-56.4453
-44.8861
-26.9469
-1.13551
32.9745
72.6411
107.388
120.451
-34.7773
-34.832
-31.9102
-27.7286
-23.5998
-20.2469
-17.9819
-16.8783
-16.9211
-18.0591
-20.2188
-23.3074
-27.2083
-31.776
-36.8313
-42.1606
-47.518
-52.6299
-57.2004
-60.9149
-63.4371
-64.3953
-63.3489
-59.3847
-51.2807
-37.3909
-15.5828
16.4019
59.9817
113.394
167.23
196.943
-45.6125
-43.9011
-37.7749
-30.7028
-24.4754
-19.7294
-16.5803
-14.9266
-14.641
-15.5939
-17.66
-20.7113
-24.6074
-29.1863
-34.258
-39.6015
-44.965
-50.0677
-54.6013
-58.2277
-60.5695
-61.1867
-59.5355
-54.5644
-44.6202
-27.6145
-0.764723
39.1764
95.2021
167.875
249.348
308.736
-66.0367
-57.5651
-44.5696
-32.9236
-24.1043
-17.9464
-14.0351
-12.0107
-11.5776
-12.5063
-14.6128
-17.7344
-21.7092
-26.362
-31.4947
-36.881
-42.2646
-47.3578
-51.8389
-55.3433
-57.4451
-57.6199
-55.1837
-48.8964
-36.6988
-16.0209
16.6377
65.7661
136.719
234.609
357.667
467.17
-108.426
-75.2257
-48.8314
-31.2162
-20.0256
-13.1221
-9.15721
-7.34305
-7.20626
-8.4431
-10.8378
-14.2139
-18.4041
-23.2319
-28.4995
-33.982
-39.4233
-44.5323
-48.9763
-52.3661
-54.2275
-53.9487
-50.6918
-42.968
-28.518
-4.37837
33.5954
91.2342
177.132
305.034
495.025
724.469
-212.455
-80.6445
-34.8157
-16.2404
-7.31271
-2.69617
-0.548178
-0.117187
-1.03588
-3.08869
-6.12213
-10.0027
-14.5932
-19.7393
-25.2598
-30.9425
-36.5402
-41.7663
-46.2858
-49.6976
-51.4989
-51.0193
-47.2949
-38.7543
-23.1364
2.6848
43.1584
104.943
199.314
350.08
621.211
1179.59
VECTORS velocity double
7.69396e-05 -7.69396e-05 0
0.000148618 5.26072e-06 0
5.93366e-07 0.000142764 0
-0.000408613 0.000266442 0
-0.00103521 0.000360155 0
-0.00182295 0.000427589 0
-0.00272693 0.000476391 0
-0.0037152 0.000511873 0
-0.00476255 0.000535483 0
-0.00584343 0.00054539 0
-0.00692655 0.000537728 0
-0.00797214 0.000507864 0
-0.0089315 0.000451495 0
-0.00974855 0.000365559 0
-0.0103632 0.000249048 0
-0.0107159 0.00010371 0
-0.0107541 -6.54809e-05 0
-0.0104384 -0.000250312 0
-0.00975058 -0.000437461 0
-0.00870306 -0.000610056 0
-0.00734361 -0.000749394 0
-0.00575679 -0.000837423 0
-0.00405954 -0.000859831 0
-0.00239045 -0.000809255 0
-0.00089334 -0.000687859 0
0.000302975 -0.000508457 0
0.00110526 -0.000293826 0
0.001472 -7.292e-05 0
0.00142411 0.000120814 0
0.00105322 0.000250076 0
0.000533363 0.000269779 0
0.000131792 0.000131792 0
-8.745e-06 -0.000145134 0
-0.000273446 0.000266478 0
-0.00108637 0.000842497 0
-0.00247229 0.00136183 0
-0.00434675 0.00176583 0
-0.00659994 0.00206285 0
-0.00913175 0.00227693 0
-0.0118572 0.00242506 0
-0.0146984 0.00251087 0
-0.0175738 0.0025263 0
-0.0203902 0.00245627 0
-0.0230389 0.00228364 0
-0.0253974 0.00199355 0
-0.0273339 0.00157705 0
-0.0287158 0.00103411 0
-0.0294204 0.000376011 0
-0.0293469 -0.000373125 0
-0.0284301 -0.00117525 0
-0.0266546 -0.00197578 0
-0.024066 -0.00270783 0
-0.0207787 -0.00329842 0
-0.0169765 -0.00367739 0
-0.0129052 -0.00378842 0
-0.00885412 -0.00360084 0
-0.00512766 -0.00311985 0
-0.00200815 -0.0023923 0
0.000285463 -0.00150588 0
0.00163806 -0.000580211 0
0.00206838 0.000245675 0
0.00174472 0.000819766 0
0.000988804 0.000975864 0
0.000276249 0.000539832 0
-0.000184439 4.805e-05 0
-0.00100605 0.00115961 0
-0.00271661 0.00247285 0
-0.00523343 0.00363421 0
-0.00841127 0.00454576 0
-0.0120972 0.00522201 0
-0.016152 0.00570441 0
-0.0204498 0.00602083 0
-0.0248675 0.00617396 0
-0.0292738 0.00614495 0
-0.0335227 0.00590283 0
-0.0374517 0.00541484 0
-0.0408862 0.0046553 0
-0.0436472 0.00361286 0
-0.045563 0.00229602 0
-0.0464816 0.000737335 0
-0.0462856 -0.00100405 0
-0.0449064 -0.00284033 0
-0.0423372 -0.00465533 0
-0.0386443 -0.00630975 0
-0.0339754 -0.00765273 0
-0.0285623 -0.0085384 0
-0.0227143 -0.00884668 0
-0.0168015 -0.00850654 0
-0.0112239 -0.00751813 0
-0.00636903 -0.00596842 0
-0.00255789 -0.00403451 0
9.87768e-06 -0.00197195 0
0.00130531 -8.83371e-05 0
0.00150035 0.00128239 0
0.000970328 0.00179918 0
0.000291658 0.00110774 0
-0.000393361 0.00062585 0
-0.00187098 0.00288104 0
-0.00460699 0.005198 0
-0.00835413 0.00717302 0
-0.0128794 0.00871007 0
-0.0179817 0.0098459 0
-0.0234885 0.0106421 0
-0.0292421 0.0111345 0
-0.0350843 0.0113203 0
-0.0408459 0.0111665 0
-0.0463414 0.0106256 0
-0.051371 0.00965077 0
-0.0557273 0.00821014 0
-0.0592048 0.00629661 0
-0.0616123 0.00393551 0
-0.0627855 0.00118966 0
-0.0626003 -0.00183758 0
-0.0609843 -0.00500208 0
-0.0579265 -0.00812046 0
-0.0534903 -0.0109737 0
-0.0478246 -0.0133233 0
-0.0411713 -0.0149343 0
-0.0338642 -0.0156058 0
-0.0263179 -0.0152066 0
-0.0190009 -0.0137126 0
-0.0123914 -0.0112383 0
-0.00691601 -0.00805112 0
-0.00287856 -0.00456056 0
-0.000393334 -0.00128039 0
0.000661933 0.00122413 0
0.000664083 0.00238532 0
0.000232477 0.00163187 0
-0.000614266 0.00163348 0
-0.00278708 0.00552384 0
-0.00660169 0.00910582 0
-0.0116181 0.0120288 0
-0.0174989 0.0142604 0
-0.0239897 0.0158887 0
-0.0308878 0.0170041 0
-0.0380112 0.0176495 0
-0.0451778 0.017814 0
-0.0521926 0.0174491 0
-0.0588453 0.0164912 0
-0.0649141 0.0148835 0
-0.0701731 0.0125927 0
-0.074403 0.00962139 0
-0.0774014 0.00601666 0
-0.0789948 0.00187507 0
-0.0790482 -0.00265476 0
-0.0774728 -0.00737637 0
-0.0742337 -0.0120429 0
-0.0693658 -0.0163554 0
-0.0629911 -0.019982 0
-0.0553332 -0.0225869 0
-0.0467247 -0.0238688 0
-0.0376043 -0.0236103 0
-0.0284975 -0.0217327 0
-0.019976 -0.0183494 0
-0.0125898 -0.0138016 0
-0.00678004 -0.00865731 0
-0.00278601 -0.00366289 0
-0.000574945 0.000340291 0
0.000190488 0.00250157 0
0.000136683 0.00200103 0
-0.000836905 0.00308465 0
-0.00370835 0.00911693 0
-0.00860009 0.0142191 0
-0.0148712 0.0182031 0
-0.0220756 0.0211712 0
-0.0299056 0.0232988 0
-0.0381322 0.0247187 0
-0.0465571 0.0254835 0
-0.0549841 0.0255736 0
-0.0632049 0.024925 0
-0.0709971 0.0234602 0
-0.0781282 0.0211145 0
-0.0843634 0.017856 0
-0.0894744 0.0136988 0
-0.093248 0.00871136 0
-0.0954955 0.00302125 0
-0.09606 -0.00318305 0
-0.0948211 -0.00966237 0
-0.0917014 -0.0161157 0
-0.0866855 -0.0221665 0
-0.0798459 -0.0273852 0
-0.0713649 -0.0313225 0
-0.0615518 -0.0335547 0
-0.0508519 -0.0337448 0
-0.0398387 -0.0317181 0
-0.0291808 -0.0275433 0
-0.0195743 -0.0216004 0
-0.0116376 -0.0146049 0
-0.00578748 -0.00755945 0
-0.0021282 -0.0016335 0
-0.000396872 0.00197861 0
2.16083e-05 0.00215933 0
-0.0010531 0.00497465 0
-0.00459843 0.0136437 0
-0.0105217 0.0205074 0
-0.0179871 0.0256513 0
-0.0264449 0.0293851 0
-0.0355396 0.0320096 0
-0.0450216 0.0337164 0
-0.054684 0.0345731 0
-0.0643256 0.0345526 0
-0.0737351 0.0335764 0
-0.0826877 0.0315536 0
-0.0909482 0.0284127 0
-0.098277 0.0241219 0
-0.104437 0.0187037 0
-0.109199 0.0122427 0
-0.112352 0.00488974 0
-0.113703 -0.00313615 0
-0.113089 -0.0115622 0
-0.110378 -0.0200467 0
-0.105489 -0.02814 0
-0.0984279 -0.0353124 0
-0.0893147 -0.0409896 0
-0.0784131 -0.0446023 0
-0.0661523 -0.0456579 0
-0.0531359 -0.0438347 0
-0.0401241 -0.0390963 0
-0.027974 -0.0318042 0
-0.0175235 -0.0227882 0
-0.00942949 -0.0133203 0
-0.00399988 -0.00496152 0
-0.0010912 0.000666621 0
-0.000109652 0.00207128 0
-0.0012541 0.00728186 0
-0.0054215 0.0190492 0
-0.0122913 0.0278949 0
-0.0208492 0.034287 0
-0.0304543 0.0388122 0
-0.040711 0.041934 0
-0.0513563 0.0439193 0
-0.0621811 0.0448574 0
-0.0729876 0.0447164 0
-0.0835691 0.0434036 0
-0.0937049 0.0408148 0
-0.103162 0.0368686 0
-0.111696 0.0315294 0
-0.119061 0.0248206 0
-0.125006 0.0168338 0
-0.129288 0.00773275 0
-0.131672 -0.0022437 0
-0.131947 -0.0127938 0
-0.129921 -0.0235522 0
-0.125441 -0.0340037 0
-0.118431 -0.0435197 0
-0.108932 -0.0513943 0
-0.097137 -0.0568944 0
-0.0834277 -0.0593359 0
-0.0684066 -0.0581944 0
-0.0529025 -0.0532525 0
-0.0379316 -0.044769 0
-0.024584 -0.0336215 0
-0.0138256 -0.0213394 0
-0.00625566 -0.00994201 0
-0.00191735 -0.00159989 0
-0.000261368 0.00170026 0
-0.00143021 0.00996617 0
-0.00614032 0.0252424 0
-0.0138339 0.036265 0
-0.0233442 0.0439852 0
-0.0339545 0.0493294 0
-0.0452386 0.0529576 0
-0.0569258 0.0552281 0
-0.0688112 0.0562588 0
-0.0807055 0.0560158 0
-0.0924123 0.0543925 0
-0.103719 0.0512689 0
-0.114398 0.0465495 0
-0.124201 0.0401869 0
-0.13287 0.0321966 0
-0.140133 0.0226656 0
-0.14571 0.01176 0
-0.149325 -0.000271648 0
-0.150714 -0.0131012 0
-0.149631 -0.026354 0
-0.145851 -0.0394633 0
-0.13921 -0.0517101 0
-0.129654 -0.0622588 0
-0.117276 -0.070203 0
-0.102374 -0.074639 0
-0.0855015 -0.0747845 0
-0.067513 -0.070155 0
-0.0495557 -0.0607945 0
-0.0329821 -0.0475173 0
-0.0191313 -0.0320527 0
-0.00900029 -0.0169297 0
-0.00292316 -0.00502761 0
-0.000445021 0.000993873 0
-0.00157128 0.0129677 0
-0.00671719 0.0320969 0
-0.0150757 0.0454626 0
-0.0253614 0.0545836 0
-0.0367985 0.0607785 0
-0.0489385 0.0649325 0
-0.0615079 0.0675099 0
-0.0743096 0.0686641 0
-0.0871666 0.0683618 0
-0.0998957 0.0664824 0
-0.112296 0.0628868 0
-0.124146 0.0574594 0
-0.135198 0.0501329 0
-0.145183 0.040904 0
-0.153808 0.0298453 0
-0.160764 0.0171142 0
-0.165737 0.00296125 0
-0.168416 -0.012265 0
-0.168506 -0.0281836 0
-0.16572 -0.0442003 0
-0.159809 -0.0595236 0
-0.150609 -0.0732017 0
-0.138088 -0.084159 0
-0.122416 -0.0912573 0
-0.104043 -0.0934111 0
-0.0837804 -0.0897801 0
-0.0628484 -0.0800587 0
-0.0428381 -0.064837 0
-0.0255044 -0.0459174 0
-0.0123583 -0.0263421 0
-0.00417018 -0.00988047 0
-0.000675218 -0.000126366 0
-0.00166758 0.0162065 0
-0.00711655 0.039453 0
-0.015948 0.0552966 0
-0.0267969 0.0658841 0
-0.0388464 0.0729646 0
-0.0516313 0.0776713 0
-0.0648781 0.0805873 0
-0.0783982 0.0819086 0
-0.092029 0.081605 0
-0.105603 0.0795418 0
-0.118932 0.0755576 0
-0.131805 0.0695108 0
-0.143978 0.0613067 0
-0.155178 0.0509147 0
-0.165101 0.0383832 0
-0.173421 0.0238524 0
-0.179792 0.00756651 0
-0.183866 -0.0101169 0
-0.185313 -0.0287949 0
-0.183804 -0.0478836 0
-0.179009 -0.0665459 0
-0.170648 -0.0837408 0
-0.158544 -0.0982448 0
-0.142697 -0.10869 0
-0.123387 -0.113661 0
-0.1013 -0.111881 0
-0.0776396 -0.10255 0
-0.0541697 -0.0858258 0
-0.0330624 -0.0633696 0
-0.0164504 -0.038648 0
-0.00572493 -0.0164882 0
-0.000968473 -0.00177006 0
-0.00171087 0.019585 0
-0.00730837 0.047121 0
-0.0163923 0.065544 0
-0.027562 0.0776553 0
-0.0399755 0.0856563 0
-0.0531553 0.0909443 0
-0.066827 0.0942326 0
-0.0808102 0.0957667 0
-0.0949558 0.0955233 0
-0.109112 0.0933537 0
-0.123109 0.0890722 0
-0.136748 0.0825075 0
-0.149797 0.0735319 0
-0.161989 0.0620817 0
-0.173024 0.0481747 0
-0.18257 0.0319265 0
-0.190273 0.0135664 0
-0.195765 -0.00655076 0
-0.198696 -0.0279827 0
-0.198708 -0.0501924 0
-0.195408 -0.0723331 0
-0.188406 -0.0933158 0
-0.177369 -0.111811 0
-0.16209 -0.12625 0
-0.142615 -0.134886 0
-0.119408 -0.13595 0
-0.0935423 -0.128007 0
-0.0668417 -0.11054 0
-0.0418425 -0.0847623 0
-0.0213716 -0.0543382 0
-0.00765131 -0.0252438 0
-0.00134186 -0.00408039 0
-0.00169553 0.0229914 0
-0.00727187 0.0548885 0
-0.0163673 0.0759559 0
-0.0275917 0.0896375 0
-0.0400933 0.0985892 0
-0.0533837 0.104482 0
-0.0671848 0.108168 0
-0.0813215 0.109951 0
-0.0956568 0.10982 0
-0.110056 0.107613 0
-0.124367 0.103121 0
-0.138411 0.0961417 0
-0.151977 0.0865128 0
-0.164819 0.0741349 0
-0.176655 0.058992 0
-0.18717 0.0411706 0
-0.196023 0.0208785 0
-0.202853 -0.00154054 0
-0.207305 -0.0256099 0
-0.209008 -0.0508507 0
-0.207533 -0.0764503 0
-0.202405 -0.101328 0
-0.193129 -0.124111 0
-0.179267 -0.14309 0
-0.160574 -0.156215 0
-0.137195 -0.161206 0
-0.109938 -0.155874 0
-0.0805351 -0.138776 0
-0.0517693 -0.110291 0
-0.0271716 -0.0738783 0
-0.0100045 -0.0365912 0
-0.00181234 -0.00723458 0
-0.00161961 0.0263065 0
-0.00699906 0.0625291 0
-0.0158551 0.0862667 0
-0.0268549 0.101551 0
-0.0391507 0.111473 0
-0.0522429 0.11798 0
-0.0658454 0.122073 0
-0.079784 0.124121 0
-0.0939311 0.124132 0
-0.108168 0.121937 0
-0.122365 0.117305 0
-0.13637 0.110006 0
-0.150001 0.0998452 0
-0.163046 0.0866891 0
-0.175261 0.0704889 0
-0.186373 0.051301 0
-0.196079 0.0293068 0
-0.204049 0.00483152 0
-0.209939 -0.0216401 0
-0.213393 -0.0496642 0
-0.213987 -0.0785166 0
-0.211184 -0.107194 0
-0.204346 -0.13436 0
-0.192796 -0.158252 0
-0.175951 -0.176592 0
-0.153551 -0.186609 0
-0.125995 -0.185285 0
-0.0947406 -0.170022 0
-0.0626349 -0.139917 0
-0.0338387 -0.0976461 0
-0.012825 -0.0510042 0
-0.0023959 -0.0114428 0
-0.00148563 0.0294117 0
-0.00649758 0.0698153 0
-0.0148671 0.0962062 0
-0.0253625 0.113106 0
-0.0371535 0.124005 0
-0.0497284 0.131116 0
-0.0627875 0.135599 0
-0.0761524 0.137899 0
-0.0897023 0.138051 0
-0.103335 0.135887 0
-0.116943 0.131161 0
-0.130408 0.123619 0
-0.143585 0.113041 0
-0.156312 0.0992651 0
-0.168399 0.0822158 0
-0.179635 0.061922 0
-0.189781 0.0385376 0
-0.198569 0.0123585 0
-0.205687 -0.0161595 0
-0.210823 -0.0465543 0
-0.213602 -0.0782533 0
-0.213461 -0.110401 0
-0.209653 -0.141799 0
-0.201276 -0.170741 0
-0.187388 -0.194837 0
-0.167251 -0.210901 0
-0.140721 -0.215078 0
-0.108779 -0.203424 0
-0.0740958 -0.173303 0
-0.0412897 -0.125862 0
-0.0161343 -0.0689572 0
-0.0031072 -0.0169459 0
-0.00130096 0.0321983 0
-0.00579244 0.0765321 0
-0.0134471 0.105514 0
-0.0231734 0.124021 0
-0.034171 0.135879 0
-0.0459151 0.14356 0
-0.0580878 0.148386 0
-0.0705016 0.150891 0
-0.0830397 0.151148 0
-0.0956153 0.148999 0
-0.108149 0.144192 0
-0.120555 0.136459 0
-0.132739 0.125562 0
-0.14459 0.111322 0
-0.155989 0.0936449 0
-0.166801 0.0725406 0
-0.176875 0.048139 0
-0.186032 0.0207015 0
-0.194049 -0.00936827 0
-0.20068 -0.0415772 0
-0.205605 -0.0755266 0
-0.208296 -0.110577 0
-0.207953 -0.145773 0
-0.203488 -0.179609 0
-0.19361 -0.209734 0
-0.177062 -0.23269 0
-0.15304 -0.243842 0
-0.121844 -0.237798 0
-0.085686 -0.20977 0
-0.0493676 -0.15852 0
-0.0199329 -0.0908897 0
-0.00396014 -0.0240133 0
-0.00107782 0.0345771 0
-0.00492644 0.0824934 0
-0.0116733 0.113954 0
-0.0203968 0.13403 0
-0.0303384 0.146809 0
-0.0409611 0.154997 0
-0.0519249 0.160086 0
-0.0630302 0.16271 0
-0.0741625 0.162998 0
-0.0852514 0.160812 0
-0.0962463 0.155906 0
-0.107102 0.148007 0
-0.117772 0.136868 0
-0.12821 0.122306 0
-0.138368 0.104219 0
-0.1482 0.0826101 0
-0.157654 0.0575972 0
-0.166667 0.0294134 0
-0.175141 -0.00159 0
-0.18292 -0.034945 0
-0.189767 -0.0703859 0
-0.195248 -0.107546 0
-0.198576 -0.14582 0
-0.198547 -0.184057 0
-0.193569 -0.220141 0
-0.181862 -0.250539 0
-0.161883 -0.269994 0
-0.133062 -0.271663 0
-0.0968456 -0.24828 0
-0.0578485 -0.195326 0
-0.0242022 -0.117165 0
-0.00496993 -0.0329433 0
-0.000832878 0.0364878 0
-0.00395942 0.0875579 0
-0.00965767 0.121335 0
-0.0171925 0.142908 0
-0.025857 0.156537 0
-0.0351046 0.165139 0
-0.0445735 0.170377 0
-0.0540511 0.173003 0
-0.0634256 0.173213 0
-0.0726456 0.170907 0
-0.0816924 0.165853 0
-0.0905639 0.157786 0
-0.0992681 0.146463 0
-0.107821 0.131702 0
-0.116251 0.11341 0
-0.124597 0.0915963 0
-0.132914 0.0663822 0
-0.141261 0.0379887 0
-0.149675 0.00672229 0
-0.158123 -0.0270296 0
-0.166493 -0.0630841 0
-0.174485 -0.101375 0
-0.18141 -0.141738 0
-0.18604 -0.183537 0
-0.186573 -0.225106 0
-0.180756 -0.263099 0
-0.166283 -0.291887 0
-0.141561 -0.303313 0
-0.106959 -0.287449 0
-0.0664559 -0.235657 0
-0.0289121 -0.148024 0
-0.00615753 -0.0440708 0
-0.000586588 0.0379073 0
-0.00296679 0.0916452 0
-0.00754419 0.127523 0
-0.0137679 0.150478 0
-0.0209885 0.164852 0
-0.0286561 0.17374 0
-0.036391 0.17898 0
-0.043971 0.181457 0
-0.0512916 0.181453 0
-0.0583245 0.178919 0
-0.0650877 0.173651 0
-0.0716271 0.1654 0
-0.0780069 0.153934 0
-0.0843078 0.139086 0
-0.0906283 0.120776 0
-0.0970898 0.0990371 0
-0.10384 0.074008 0
-0.111048 0.0459185 0
-0.118889 0.0150466 0
-0.12747 -0.018324 0
-0.136828 -0.0540626 0
-0.146837 -0.0923944 0
-0.156978 -0.133653 0
-0.166122 -0.177848 0
-0.172391 -0.223993 0
-0.173179 -0.26924 0
-0.165459 -0.307938 0
-0.14653 -0.330912 0
-0.115391 -0.325591 0
-0.0748784 -0.27853 0
-0.0340322 -0.183541 0
-0.00755625 -0.0577846 0
-0.000362725 0.0388566 0
-0.00203853 0.0947519 0
-0.00550768 0.132463 0
-0.0103757 0.15663 0
-0.0160499 0.171595 0
-0.0219866 0.180601 0
-0.0277986 0.185665 0
-0.0332641 0.187817 0
-0.038294 0.187443 0
-0.0428907 0.184559 0
-0.0471158 0.179 0
-0.0510677 0.170542 0
-0.0548703 0.158974 0
-0.0586689 0.144145 0
-0.06263 0.125999 0
-0.0669453 0.104592 0
-0.0718362 0.0800943 0
-0.0775578 0.0527628 0
-0.0843905 0.022875 0
-0.0926 -0.00936147 0
-0.10237 -0.0438968 0
-0.113742 -0.0811794 0
-0.126434 -0.122035 0
-0.139548 -0.167209 0
-0.15131 -0.216601 0
-0.158955 -0.2682 0
-0.158875 -0.316779 0
-0.147261 -0.352615 0
-0.121513 -0.360775 0
-0.0827802 -0.322591 0
-0.0395412 -0.223564 0
-0.00921858 -0.0745594 0
-0.000188619 0.0394079 0
-0.00128008 0.0969678 0
-0.00375476 0.136191 0
-0.00731285 0.161328 0
-0.0114078 0.176666 0
-0.0155155 0.185575 0
-0.0192614 0.190249 0
-0.0224419 0.191879 0
-0.0249974 0.190967 0
-0.0269723 0.187607 0
-0.0284795 0.181684 0
-0.0296757 0.173006 0
-0.0307471 0.161384 0
-0.0319048 0.146691 0
-0.0333815 0.128891 0
-0.0354324 0.108066 0
-0.0383376 0.0844163 0
-0.0424075 0.0582324 0
-0.0479868 0.0298173 0
-0.0554401 -0.000640909 0
-0.0650743 -0.0332127 0
-0.0770874 -0.0684787 0
-0.0914554 -0.107676 0
-0.10762 -0.15229 0
-0.124127 -0.20325 0
-0.138317 -0.259717 0
-0.146256 -0.317403 0
-0.143161 -0.366699 0
-0.124699 -0.390901 0
-0.0897911 -0.366106 0
-0.045425 -0.267655 0
-0.0112193 -0.0949973 0
-9.71221e-05 0.0396937 0
-0.000818042 0.0984944 0
-0.00253071 0.138851 0
-0.00492399 0.164619 0
-0.00747454 0.18002 0
-0.00969868 0.188552 0
-0.0112668 0.192586 0
-0.0120225 0.193479 0
-0.0119573 0.191858 0
-0.0111721 0.187905 0
-0.00984144 0.181562 0
-0.00818504 0.172668 0
-0.00645377 0.161063 0
-0.00492507 0.146642 0
-0.00389734 0.129389 0
-0.00368565 0.109406 0
-0.00461945 0.0869144 0
-0.00704189 0.0622266 0
-0.0113128 0.0356732 0
-0.0178131 0.00745679 0
-0.0269089 -0.0225804 0
-0.0389041 -0.0551027 0
-0.0539939 -0.0915939 0
-0.0720221 -0.134178 0
-0.0920503 -0.184826 0
-0.111855 -0.244147 0
-0.12756 -0.309329 0
-0.133715 -0.371712 0
-0.124278 -0.413787 0
-0.09546 -0.406946 0
-0.051649 -0.314992 0
-0.0136491 -0.119866 0
-0.000132037 0.0399228 0
-0.000814911 0.099669 0
-0.00213641 0.140711 0
-0.00361173 0.166628 0
-0.00470767 0.181658 0
-0.00501495 0.189446 0
-0.00429951 0.192545 0
-0.00249514 0.192471 0
0.000325472 0.189979 0
0.0039855 0.185339 0
0.00823856 0.178545 0
0.0127932 0.169474 0
0.0173275 0.157991 0
0.0214982 0.144014 0
0.0249472 0.12754 0
0.027308 0.108683 0
0.0282147 0.0876652 0
0.0273127 0.0648003 0
0.0242666 0.0404166 0
0.0187586 0.0147216 0
0.0104539 -0.0124448 0
-0.000990508 -0.0417987 0
-0.0159136 -0.074885 0
-0.0345143 -0.114258 0
-0.0564929 -0.162739 0
-0.0803946 -0.222527 0
-0.102896 -0.292741 0
-0.118402 -0.366638 0
-0.119434 -0.427266 0
-0.0991519 -0.442567 0
-0.0580871 -0.364247 0
-0.0165915 -0.150106 0
-0.000360121 0.040415 0
-0.0014993 0.100999 0
-0.00296 0.142163 0
-0.00385335 0.167544 0
-0.00360622 0.18159 0
-0.00194446 0.188159 0
0.00119861 0.189973 0
0.00573836 0.188699 0
0.0114706 0.185199 0
0.0181151 0.179814 0
0.0253457 0.172586 0
0.0328021 0.163422 0
0.0401001 0.152211 0
0.0468406 0.138883 0
0.0526169 0.123446 0
0.0570244 0.106009 0
0.0596742 0.0867823 0
0.06021 0.0660494 0
0.0583218 0.0441018 0
0.0537489 0.0211173 0
0.0462533 -0.00304012 0
0.0355898 -0.0290953 0
0.0214762 -0.0585517 0
0.00349619 -0.0940109 0
-0.0187407 -0.138771 0
-0.044781 -0.196553 0
-0.072385 -0.26861 0
-0.0965697 -0.351079 0
-0.109046 -0.429317 0
-0.0998708 -0.469974 0
-0.0643869 -0.413389 0
-0.0200743 -0.186772 0
-0.000894817 0.0416699 0
-0.00321989 0.103208 0
-0.00552345 0.143718 0
-0.00621462 0.167574 0
-0.00469037 0.179789 0
-0.000922372 0.18453 0
0.00487183 0.184665 0
0.0123708 0.181968 0
0.0211971 0.177371 0
0.0309513 0.171244 0
0.0412229 0.163654 0
0.0515906 0.15453 0
0.061623 0.143773 0
0.0708833 0.13132 0
0.078937 0.117179 0
0.0853628 0.101443 0
0.0897695 0.0842918 0
0.0918144 0.0659592 0
0.0912201 0.0466744 0
0.0877797 0.026558 0
0.0813347 0.00545974 0
0.0717055 -0.0173024 0
0.0586356 -0.0431611 0
0.0417437 -0.0745296 0
0.0205352 -0.114807 0
-0.00553754 -0.168404 0
-0.0359634 -0.238729 0
-0.0672745 -0.325464 0
-0.0914726 -0.418258 0
-0.0959885 -0.485692 0
-0.069741 -0.459402 0
-0.0239833 -0.23083 0
-0.00193879 0.0445035 0
-0.00652589 0.107287 0
-0.0105221 0.145939 0
-0.0113176 0.166839 0
-0.00841375 0.176096 0
-0.00223038 0.178272 0
0.00657568 0.176322 0
0.0173579 0.17203 0
0.0295309 0.16631 0
0.0425679 0.159514 0
0.0559837 0.151697 0
0.0693136 0.142789 0
0.082102 0.132693 0
0.0939004 0.121341 0
0.104273 0.108731 0
0.112808 0.0949298 0
0.119134 0.0800722 0
0.122938 0.0643295 0
0.123981 0.0478555 0
0.122099 0.0306998 0
0.117182 0.0126793 0
0.109111 -0.00682091 0
0.0976414 -0.0291036 0
0.0823706 -0.0564243 0
0.0626981 -0.0920315 0
0.0377915 -0.1402 0
0.00690117 -0.205616 0
-0.029107 -0.291257 0
-0.0643131 -0.39306 0
-0.0848679 -0.485819 0
-0.07252 -0.49787 0
-0.0279129 -0.282726 0
-0.00384819 0.0502905 0
-0.0122419 0.114481 0
-0.0187546 0.149255 0
-0.0196073 0.165172 0
-0.0148129 0.170065 0
-0.00557037 0.168878 0
0.0068539 0.164487 0
0.0214186 0.158518 0
0.0373149 0.151752 0
0.0539067 0.144443 0
0.0706617 0.136597 0
0.087103 0.128118 0
0.102782 0.118896 0
0.117269 0.108852 0
0.130156 0.09796 0
0.141069 0.0862537 0
0.149675 0.0738162 0
0.155704 0.060752 0
0.158955 0.0471391 0
0.159295 0.0329585 0
0.156639 0.0179937 0
0.150889 0.00168647 0
0.141808 -0.0170615 0
0.128944 -0.0403311 0
0.111556 -0.0710641 0
0.0884983 -0.113204 0
0.0583229 -0.171547 0
0.0200417 -0.251037 0
-0.0241859 -0.353847 0
-0.0623797 -0.466284 0
-0.0696849 -0.522448 0
-0.0309007 -0.34154 0
-0.00718656 0.0613253 0
-0.0213598 0.126013 0
-0.0305792 0.153455 0
-0.0304434 0.161689 0
-0.0223679 0.160678 0
-0.00877914 0.155433 0
0.00830917 0.148419 0
0.0274591 0.140872 0
0.0476854 0.133276 0
0.0683006 0.125712 0
0.0887775 0.118095 0
0.108671 0.110285 0
0.127576 0.102145 0
0.145117 0.0935755 0
0.160942 0.0845242 0
0.174732 0.074987 0
0.186212 0.0649962 0
0.19516 0.054595 0
0.201407 0.0437977 0
0.204834 0.0325332 0
0.205342 0.0205677 0
0.202806 0.00739797 0
0.19701 -0.00789636 0
0.187448 -0.0270703 0
0.173169 -0.0526569 0
0.152679 -0.0880637 0
0.12388 -0.137713 0
0.0844313 -0.207141 0
0.0334213 -0.302505 0
-0.0223563 -0.423654 0
-0.0558252 -0.524304 0
-0.0309265 -0.403367 0
-0.0125587 0.0810705 0
-0.0340024 0.141885 0
-0.0436602 0.15646 0
-0.0390492 0.153937 0
-0.0245135 0.145819 0
-0.00410243 0.136293 0
0.0194705 0.126898 0
0.0445333 0.11818 0
0.070093 0.110182 0
0.0955261 0.102758 0
0.120391 0.0957085 0
0.14433 0.0888395 0
0.167028 0.0819866 0
0.188194 0.075028 0
0.207554 0.0678863 0
0.224865 0.0605241 0
0.239912 0.0529316 0
0.252518 0.0451054 0
0.262542 0.0370168 0
0.26986 0.0285691 0
0.274347 0.0195372 0
0.275825 0.00948559 0
0.273997 -0.00235931 0
0.268274 -0.017323 0
0.257538 -0.0373883 0
0.239937 -0.0652409 0
0.212764 -0.104565 0
0.172553 -0.16063 0
0.115978 -0.241432 0
0.043968 -0.35694 0
-0.0215374 -0.492043 0
-0.023885 -0.458178 0