# vtk DataFile Version 2.0
Lid-driven cavity
ASCII
DATASET STRUCTURED_POINTS
DIMENSIONS 32 32 1
ORIGIN 0.015625 0.015625 0
SPACING 0.03125 0.03125 1
POINT_DATA 1024
SCALARS pressure double 1
LOOKUP_TABLE default
9.74196
9.68515
9.6079
9.54235
9.5052
9.50332
9.53891
9.61266
9.72537
9.87835
10.0732
10.3114
10.593
10.9166
11.278
11.6699
12.0819
12.5003
12.9084
13.2871
13.6177
13.8833
14.0719
14.1782
14.2049
14.1626
14.0685
13.9443
13.8137
13.7004
13.6257
13.604
9.79877
9.74019
9.6793
9.63294
9.61145
9.62006
9.66117
9.73614
9.84628
9.99316
10.1784
10.4032
10.6679
10.9709
11.3085
11.6741
12.058
12.448
12.8286
13.1826
13.4924
13.7428
13.9231
14.0287
14.0627
14.0351
13.962
13.8625
13.757
13.6647
13.6022
13.5822
9.87805
9.797
9.73423
9.69476
9.6818
9.69693
9.74106
9.81513
9.92056
10.0592
10.233
10.4438
10.6922
10.9776
11.297
11.6447
12.012
12.3872
12.7557
13.1
13.4029
13.6488
13.8268
13.9321
13.9677
13.9438
13.8764
13.7841
13.6857
13.5982
13.5354
13.5084
9.94318
9.83306
9.75964
9.71927
9.70885
9.72601
9.76956
9.83956
9.9373
10.0649
10.2251
10.4204
10.6526
10.9222
11.2276
11.5643
11.9244
12.2965
12.6656
13.0139
13.3228
13.5753
13.7588
13.8674
13.9035
13.8772
13.8052
13.707
13.6018
13.5058
13.4321
13.3902
9.96598
9.82619
9.7387
9.69296
9.68044
9.69523
9.73404
9.796
9.88223
9.9953
10.1387
10.3161
10.531
10.7852
11.079
11.4093
11.7696
12.148
12.5293
12.8945
13.2231
13.4953
13.6956
13.8155
13.8554
13.8254
13.7428
13.6292
13.5056
13.3902
13.2963
13.2339
9.92318
9.75536
9.65304
9.59942
9.58127
9.58953
9.61915
9.66845
9.7385
9.83241
9.95463
10.1103
10.3046
10.5415
10.8231
11.1488
11.5137
11.9056
12.3093
12.7046
13.0682
13.3768
13.61
13.7548
13.8081
13.7783
13.6834
13.5477
13.3963
13.251
13.1282
13.0399
9.79414
9.60063
9.4838
9.4208
9.39404
9.39175
9.40738
9.43869
9.48679
9.55538
9.65007
9.77762
9.94512
10.1591
10.4242
10.7426
11.1121
11.5214
11.9557
12.3942
12.8106
13.1767
13.4655
13.6568
13.7411
13.7228
13.6195
13.4586
13.2711
13.0856
12.9243
12.8037
9.55968
9.34301
9.21232
9.13873
9.10048
9.08339
9.07966
9.08655
9.10531
9.14026
9.19818
9.28754
9.41772
9.59805
9.83658
10.1388
10.5065
10.9318
11.4016
11.8953
12.3843
12.8342
13.2095
13.4793
13.6237
13.6389
13.5394
13.3553
13.1256
12.8891
12.6781
12.5158
9.20193
8.96473
8.82078
8.73518
8.68222
8.64546
8.61595
8.59048
8.57032
8.56032
8.56836
8.60466
8.68114
8.81045
9.0047
9.27403
9.62495
10.0567
10.5605
11.1182
11.6996
12.2643
12.766
13.1592
13.4079
13.494
13.4235
13.2269
12.9526
12.6545
12.38
12.1636
8.70468
8.44971
8.29285
8.19337
8.12179
8.05952
7.9964
7.9286
7.85719
7.7873
7.72766
7.6902
7.68955
7.74221
7.86533
8.07501
8.38414
8.80113
9.32747
9.95063
10.6413
11.354
12.0301
12.6055
13.0212
13.2362
13.2392
13.0554
12.7417
12.3725
12.0183
11.7313
8.05415
7.78433
7.6146
7.49877
7.4038
7.30897
7.20279
7.08051
6.94255
6.79388
6.64371
6.50546
6.39654
6.33785
6.35263
6.46466
6.69569
7.06243
7.58552
8.26364
9.07237
9.96347
10.8665
11.6954
12.3609
12.7879
12.9351
12.8111
12.4772
12.0319
11.5799
11.2013
7.23986
6.95833
6.77551
6.64027
6.51634
6.38084
6.22069
6.02975
5.80728
5.5574
5.28923
5.01727
4.76166
4.54806
4.40683
4.37111
4.47374
4.74293
5.2186
5.92402
6.84495
7.93522
9.11518
10.2759
11.2916
12.0408
12.4351
12.4486
12.1353
11.6188
11.0506
10.5547
6.25564
5.96575
5.76943
5.61142
5.4525
5.26762
5.04178
4.7669
4.44032
4.06455
3.64785
3.20513
2.75894
2.33988
1.98624
1.74218
1.65415
1.76524
2.13087
2.81501
3.82127
5.11288
6.607
8.17478
9.65083
10.8561
11.6352
11.9025
11.6826
11.117
10.417
9.77329
5.10043
4.80566
4.59553
4.41153
4.21185
3.96924
3.66638
3.29266
2.84269
2.31644
1.72032
1.06884
0.386293
-0.291965
-0.919294
-1.4392
-1.78904
-1.9063
-1.72769
-1.1365
-0.0979623
1.36973
3.19022
5.22256
7.26466
9.07311
10.4056
11.0856
11.0736
10.5083
9.66848
8.84226
3.77874
3.4826
3.25873
3.04635
2.80146
2.49452
2.10552
1.62067
1.03101
0.332991
-0.469868
-1.36456
-2.32596
-3.31465
-4.2758
-5.14004
-5.82698
-6.25213
-6.33722
-5.93127
-4.94108
-3.35629
-1.23422
1.28572
3.9753
6.52837
8.60143
9.89283
10.2519
9.77435
8.80177
7.75496
2.30057
2.00641
1.76963
1.52823
1.23633
0.861982
0.382119
-0.220885
-0.960314
-1.84421
-2.87304
-4.03645
-5.30969
-6.65039
-7.99639
-9.26581
-10.3602
-11.1716
-11.5949
-11.4741
-10.6361
-9.02793
-6.67399
-3.69365
-0.321642
3.08665
6.08347
8.21242
9.15507
8.90133
7.82687
6.51996
0.680632
0.391375
0.143721
-0.124591
-0.461096
-0.900378
-1.46904
-2.18909
-3.07887
-4.15175
-5.41316
-6.85652
-8.45878
-10.176
-11.9402
-13.6585
-15.215
-16.4782
-17.3132
-17.5636
-16.9928
-15.4834
-13.0127
-9.65894
-5.63564
-1.31996
2.75016
5.94723
7.72716
7.88799
6.77717
5.17172
-1.06317
-1.34542
-1.60031
-1.88952
-2.26234
-2.75648
-3.40269
-4.22798
-5.25637
-6.50719
-7.99155
-9.70764
-11.6352
-13.7304
-15.9214
-18.1062
-20.1545
-21.9129
-23.2171
-23.9012
-23.7045
-22.4305
-19.9941
-16.4124
-11.8454
-6.65156
-1.4239
3.04525
5.93884
6.76036
5.72409
3.78655
-2.91208
-3.18651
-3.44298
-3.742
-4.1352
-4.66451
-5.36582
-6.2719
-7.41297
-8.81474
-10.4945
-12.4555
-14.6815
-17.1298
-19.7267
-22.3645
-24.9013
-27.1667
-28.9717
-30.1255
-30.3768
-29.4679
-27.2327
-23.6119
-18.6803
-12.7289
-6.34954
-0.463367
3.81717
5.59447
4.79937
2.50703
-4.84956
-5.1173
-5.36719
-5.65842
-6.04659
-6.57991
-7.30111
-8.24986
-9.46312
-10.9731
-12.8031
-14.9619
-17.437
-20.1881
-23.1413
-26.1857
-29.1724
-31.919
-34.2184
-35.8536
-36.5842
-36.1338
-34.2552
-30.7988
-25.7301
-19.2223
-11.795
-4.42918
1.48265
4.5496
4.22886
1.58025
-6.86516
-7.13002
-7.3619
-7.61944
-7.96555
-8.45849
-9.15076
-10.0905
-11.3222
-12.8841
-14.8053
-17.099
-19.7563
-22.7394
-25.9755
-29.3526
-32.7188
-35.8853
-38.6344
-40.7314
-41.9346
-41.9762
-40.5685
-37.4574
-32.4869
-25.6708
-17.3788
-8.5552
-0.810664
3.91298
4.38267
1.4177
-8.95945
-9.22876
-9.42644
-9.6133
-9.86596
-10.2592
-10.8598
-11.7269
-12.9126
-14.4612
-16.4057
-18.7625
-21.5252
-24.6577
-28.0886
-31.7068
-35.3604
-38.8592
-41.9817
-44.4859
-46.1208
-46.6335
-45.7386
-43.0938
-38.4146
-31.5305
-22.5902
-12.3867
-2.63927
4.15396
5.84624
2.68512
-11.1509
-11.4362
-11.5755
-11.6389
-11.7284
-11.9458
-12.3786
-13.0999
-14.1697
-15.6364
-17.5349
-19.8824
-22.673
-25.8715
-29.4075
-33.171
-37.0119
-40.742
-44.142
-46.9698
-48.9695
-49.8907
-49.4647
-47.3163
-43.0312
-36.2462
-26.8367
-15.3251
-3.38786
5.98108
9.51204
6.4282
-13.487
-13.8036
-13.8456
-13.7087
-13.541
-13.4872
-13.6643
-14.1614
-15.0456
-16.3674
-18.1607
-20.4406
-23.1989
-26.398
-29.9659
-33.7926
-37.7292
-41.5908
-45.1626
-48.2082
-50.4768
-51.7097
-51.6319
-49.8912
-45.9766
-39.3224
-29.5044
-16.6636
-2.24844
10.3894
16.6841
14.234
-16.0644
-16.428
-16.3039
-15.8504
-15.2982
-14.8564
-14.6803
-14.8755
-15.5126
-16.6389
-18.2831
-20.4542
-23.1379
-26.2917
-29.8401
-33.671
-37.6358
-41.5516
-45.2078
-48.3733
-50.8029
-52.2367
-52.3681
-50.8168
-47.0489
-40.3679
-30.0088
-15.6307
1.75779
18.6817
29.1766
28.4206
-19.0711
-19.4832
-19.0615
-18.1087
-16.9968
-16.0259
-15.3936
-15.2158
-15.5572
-16.4546
-17.9248
-19.966
-22.5545
-25.6401
-29.1414
-32.9432
-36.8951
-40.8149
-44.493
-47.6994
-50.1886
-51.6979
-51.8986
-50.3278
-46.3771
-39.1865
-27.8161
-11.4188
9.7449
32.4467
49.3784
52.245
-22.8797
-23.279
-22.2919
-20.5391
-18.6242
-16.9578
-15.7679
-15.1615
-15.1799
-15.8378
-17.1323
-19.0451
-21.5398
-24.5561
-28.0056
-31.7677
-35.6895
-39.5865
-43.2471
-46.4363
-48.8988
-50.355
-50.4662
-48.6582
-44.1715
-35.9442
-22.6886
-3.19301
22.9263
53.477
80.2407
90.1214
-28.2684
-28.3701
-26.2412
-23.1782
-20.1236
-17.5762
-15.7447
-14.6829
-14.382
-14.8184
-15.9606
-17.7692
-20.1918
-23.1566
-26.5667
-30.2958
-34.1865
-38.0504
-41.67
-44.7995
-47.1641
-48.4511
-48.2891
-46.0013
-40.5873
-30.719
-14.6804
9.34772
42.5419
83.5987
125.108
147.857
-36.9689
-35.7118
-31.155
-25.9168
-21.2861
-17.6881
-15.1833
-13.6912
-13.1197
-13.3894
-14.4322
-16.1841
-18.5753
-21.5219
-24.9182
-28.6316
-32.4996
-36.3282
-39.8913
-42.9276
-45.134
-46.1499
-45.5278
-42.5009
-35.7482
-23.5989
-3.83858
26.1141
68.6702
124.365
187.182
232.886
-53.0533
-46.5889
-36.7771
-28.0555
-21.4531
-16.7799
-13.6849
-11.89
-11.1821
-11.4085
-12.4582
-14.2411
-16.6716
-19.655
-23.0786
-26.8047
-30.6663
-34.4641
-37.9618
-40.8798
-42.8809
-43.544
-42.3197
-38.2981
-29.8538
-14.9426
9.19543
46.0883
99.9587
174.866
269.547
354.166
-85.949
-60.4242
-40.3135
-27.0234
-18.6145
-13.3709
-10.2297
-8.58713
-8.0962
-8.54872
-9.81005
-11.78
-14.3684
-17.4788
-20.9978
-24.7875
-28.6801
-32.4731
-35.9223
-38.7305
-40.5263
-40.8256
-38.9673
-33.8413
-23.6618
-6.09068
22.1204
65.5247
130.821
228.691
374.676
551.318
-166.255
-64.6613
-29.5745
-15.5596
-8.90989
-5.44227
-3.71279
-3.14557
-3.47549
-4.56277
-6.32101
-8.68309
-11.5818
-14.937
-18.6477
-22.585
-26.5876
-30.4565
-33.9464
-36.7521
-38.4823
-38.611
-36.3883
-30.6115
-19.5035
-0.609117
29.5528
76.1726
148.007
263.471
471.893
901.78
VECTORS velocity double
6.8029e-05 -6.80291e-05 0
0.000117275 1.87827e-05 0
-5.38255e-05 0.000152318 0
-0.00047468 0.000268536 0
-0.00109716 0.00035394 0
-0.00186431 0.000413215 0
-0.00273189 0.000454361 0
-0.00366918 0.00048293 0
-0.00465281 0.000500699 0
-0.00565975 0.000506241 0
-0.00666212 0.000496127 0
-0.00762437 0.000466127 0
-0.00850275 0.000412257 0
-0.00924666 0.000331651 0
-0.00980163 0.000223322 0
-0.0101138 8.88329e-05 0
-0.0101353 -6.72857e-05 0
-0.00983061 -0.000237437 0
-0.00918365 -0.000409526 0
-0.00820588 -0.00056824 0
-0.00694108 -0.000696566 0
-0.00546648 -0.000778029 0
-0.00388895 -0.000799506 0
-0.0023353 -0.000754144 0
-0.000937446 -0.00064371 0
0.00018588 -0.000479617 0
0.00094782 -0.000282323 0
0.00130835 -7.8208e-05 0
0.00128445 0.000102109 0
0.000958345 0.000223994 0
0.000488794 0.000245557 0
0.000121618 0.000121618 0
-2.22737e-05 -0.000113785 0
-0.000314664 0.000307682 0
-0.00114379 0.000863641 0
-0.00251603 0.00135031 0
-0.00433954 0.00171816 0
-0.00650297 0.00197958 0
-0.00890794 0.00216054 0
-0.0114735 0.00227958 0
-0.0141278 0.00234203 0
-0.0167977 0.00234169 0
-0.0193999 0.00226526 0
-0.0218376 0.00209699 0
-0.0240008 0.00182296 0
-0.0257704 0.0014345 0
-0.0270261 0.000931093 0
-0.0276556 0.000322699 0
-0.0275664 -0.000368747 0
-0.0266988 -0.0011083 0
-0.0250382 -0.00184624 0
-0.022626 -0.00252152 0
-0.0195667 -0.00306734 0
-0.0160293 -0.00341925 0
-0.0122398 -0.00352531 0
-0.00846489 -0.00335694 0
-0.0049854 -0.00291825 0
-0.00206245 -0.00225136 0
0.000100644 -0.00143561 0
0.00139509 -0.000579895 0
0.00183461 0.000188178 0
0.00157074 0.00072789 0
0.00089738 0.000884577 0
0.000251958 0.000495195 0
-0.000191465 9.99542e-05 0
-0.00101653 0.00121139 0
-0.00269849 0.00247102 0
-0.00513954 0.00355622 0
-0.00818912 0.00438534 0
-0.0116943 0.00498097 0
-0.0155196 0.00538947 0
-0.0195465 0.00564304 0
-0.0236624 0.00574883 0
-0.0277499 0.0056922 0
-0.0316787 0.00544577 0
-0.0353036 0.00497915 0
-0.0384673 0.00426767 0
-0.0410072 0.00329933 0
-0.0427657 0.0020804 0
-0.0436023 0.0006395 0
-0.0434073 -0.000969689 0
-0.0421157 -0.00266664 0
-0.0397192 -0.00434498 0
-0.0362774 -0.00587676 0
-0.0319259 -0.00712287 0
-0.0268787 -0.00794831 0
-0.0214229 -0.0082416 0
-0.015902 -0.00793644 0
-0.0106883 -0.007032 0
-0.0061416 -0.00560725 0
-0.00256065 -0.00382377 0
-0.000131741 -0.00191509 0
0.00111572 -0.000163606 0
0.00133719 0.00112206 0
0.000876667 0.00162429 0
0.00026521 0.00101236 0
-0.000386395 0.000677814 0
-0.00182266 0.00289487 0
-0.00445857 0.00510542 0
-0.00804257 0.00694686 0
-0.0123424 0.00834415 0
-0.0171607 0.00934552 0
-0.0223315 0.0100211 0
-0.027708 0.0104148 0
-0.0331468 0.0105319 0
-0.0384966 0.0103464 0
-0.0435918 0.00981558 0
-0.0482529 0.00889539 0
-0.0522915 0.0075537 0
-0.0555189 0.00578061 0
-0.0577573 0.00359607 0
-0.0588522 0.00105528 0
-0.0586847 -0.00174797 0
-0.0571836 -0.00468106 0
-0.0543356 -0.00757512 0
-0.0501963 -0.0102276 0
-0.0449031 -0.0124168 0
-0.0386811 -0.0139236 0
-0.0318428 -0.0145605 0
-0.0247768 -0.0142044 0
-0.0179223 -0.0128322 0
-0.011727 -0.010549 0
-0.00658929 -0.00760073 0
-0.00279221 -0.00436411 0
-0.000442441 -0.00131181 0
0.000572207 0.00103415 0
0.00059935 0.00214558 0
0.000212153 0.00148972 0
-0.000588651 0.00165286 0
-0.00266255 0.00542999 0
-0.00628959 0.00883323 0
-0.011042 0.0115554 0
-0.0165918 0.0135853 0
-0.0226933 0.015024 0
-0.0291537 0.0159739 0
-0.0358054 0.0164902 0
-0.0424838 0.0165738 0
-0.0490149 0.0161853 0
-0.05521 0.0152669 0
-0.060868 0.0137632 0
-0.0657816 0.0116381 0
-0.0697464 0.00888841 0
-0.0725715 0.00555174 0
-0.07409 0.00171292 0
-0.0741701 -0.00249301 0
-0.0727228 -0.00688432 0
-0.0697104 -0.0112323 0
-0.0651616 -0.0152584 0
-0.0591888 -0.018652 0
-0.0520018 -0.0210975 0
-0.0439147 -0.0223119 0
-0.0353431 -0.0220905 0
-0.0267845 -0.0203592 0
-0.0187782 -0.0172236 0
-0.0118413 -0.0130007 0
-0.00638598 -0.00821654 0
-0.00263412 -0.00356101 0
-0.000553174 0.000187758 0
0.000172237 0.00223942 0
0.000126721 0.0018286 0
-0.000790337 0.00303185 0
-0.00349968 0.00883425 0
-0.00811087 0.0136672 0
-0.0140148 0.0173777 0
-0.020785 0.0200831 0
-0.0281278 0.0219705 0
-0.0358275 0.0231875 0
-0.0437025 0.0238032 0
-0.0515762 0.0238129 0
-0.0592621 0.0231632 0
-0.0665593 0.0217814 0
-0.0732549 0.0196023 0
-0.0791303 0.016588 0
-0.0839694 0.0127425 0
-0.0875676 0.00812091 0
-0.0897406 0.00283525 0
-0.0903329 -0.00294293 0
-0.0892234 -0.00899122 0
-0.0863321 -0.015029 0
-0.0816396 -0.020703 0
-0.0752113 -0.0256085 0
-0.0672192 -0.0293201 0
-0.0579589 -0.0314367 0
-0.0478567 -0.0316396 0
-0.0374611 -0.0297643 0
-0.0274093 -0.0258766 0
-0.0183604 -0.0203335 0
-0.0108963 -0.0138032 0
-0.00540438 -0.00721817 0
-0.0019767 -0.00166372 0
-0.000361314 0.0017501 0
2.33976e-05 0.00197872 0
-0.000985509 0.00480769 0
-0.00430661 0.0130889 0
-0.00986046 0.0195776 0
-0.0168632 0.024374 0
-0.0247953 0.0277892 0
-0.03332 0.0301319 0
-0.0422041 0.0316099 0
-0.0512587 0.0323105 0
-0.0603032 0.0322239 0
-0.0691475 0.0312824 0
-0.0775866 0.0293984 0
-0.0854023 0.0264965 0
-0.0923684 0.0225353 0
-0.0982571 0.017523 0
-0.102846 0.0115272 0
-0.105924 0.00468005 0
-0.1073 -0.00281885 0
-0.106811 -0.0107147 0
-0.10432 -0.0186871 0
-0.0997457 -0.0263119 0
-0.0930878 -0.033086 0
-0.0844606 -0.0384618 0
-0.0741192 -0.0418966 0
-0.0624797 -0.0429213 0
-0.0501261 -0.0412318 0
-0.0377907 -0.0367965 0
-0.0262928 -0.0299604 0
-0.0164268 -0.0215065 0
-0.00880718 -0.0126264 0
-0.0037142 -0.00477611 0
-0.00100074 0.000533652 0
-9.62004e-05 0.00190591 0
-0.00116758 0.00696078 0
-0.00505588 0.0181452 0
-0.0114798 0.0264991 0
-0.0194959 0.0324714 0
-0.0285025 0.0366304 0
-0.0381275 0.0394403 0
-0.0481262 0.0411842 0
-0.0583088 0.0419733 0
-0.0684973 0.0417941 0
-0.0785046 0.0405639 0
-0.0881277 0.0381791 0
-0.0971471 0.0345509 0
-0.10533 0.0296299 0
-0.112435 0.0234219 0
-0.118216 0.0159979 0
-0.122429 0.00750074 0
-0.12484 -0.00185224 0
-0.125233 -0.0117782 0
-0.123414 -0.0219326 0
-0.119228 -0.031827 0
-0.112597 -0.04086 0
-0.103559 -0.0483535 0
-0.0923024 -0.0536027 0
-0.079205 -0.055952 0
-0.0648574 -0.0549022 0
-0.0500673 -0.0502516 0
-0.0358163 -0.0422542 0
-0.0231464 -0.0317486 0
-0.0129695 -0.0201809 0
-0.0058381 -0.0094461 0
-0.00177362 -0.00157429 0
-0.00023701 0.0015727 0
-0.00132884 0.0094572 0
-0.00571757 0.0239258 0
-0.0129079 0.0343327 0
-0.0218196 0.0415655 0
-0.0317827 0.0465061 0
-0.0423983 0.0498052 0
-0.0534159 0.0518357 0
-0.0646497 0.0527383 0
-0.0759296 0.0524974 0
-0.0870765 0.0510148 0
-0.0978931 0.0481678 0
-0.108161 0.0438495 0
-0.117642 0.037995 0
-0.126078 0.0305984 0
-0.1332 0.0217239 0
-0.138726 0.0115141 0
-0.142376 0.000194836 0
-0.143881 -0.0119264 0
-0.142991 -0.0244936 0
-0.139476 -0.036967 0
-0.133173 -0.0486538 0
-0.124027 -0.0587445 0
-0.112134 -0.0663609 0
-0.0977947 -0.0706303 0
-0.0815633 -0.0708029 0
-0.0642818 -0.0664225 0
-0.0470715 -0.0575447 0
-0.0312375 -0.0449618 0
-0.0180555 -0.0303267 0
-0.00845579 -0.0160314 0
-0.00272787 -0.0047814 0
-0.000410182 0.000925512 0
-0.00146078 0.0122468 0
-0.00625976 0.0303239 0
-0.0140818 0.042947 0
-0.0237383 0.0515192 0
-0.0345068 0.0572841 0
-0.0459688 0.0611048 0
-0.0578726 0.0634574 0
-0.0700398 0.0645177 0
-0.0823113 0.0642694 0
-0.0945192 0.0625977 0
-0.106475 0.0593571 0
-0.117964 0.0544166 0
-0.128743 0.0476876 0
-0.138542 0.0391423 0
-0.147068 0.0288275 0
-0.154007 0.0168752 0
-0.159035 0.00351156 0
-0.161835 -0.0109371 0
-0.162103 -0.0261052 0
-0.159549 -0.0414248 0
-0.15392 -0.0561272 0
-0.145056 -0.0692822 0
-0.132933 -0.079839 0
-0.117734 -0.0866905 0
-0.0999194 -0.0887886 0
-0.0803036 -0.085334 0
-0.0600935 -0.0760535 0
-0.0408405 -0.0615399 0
-0.0242315 -0.0435396 0
-0.0116932 -0.0249564 0
-0.00392409 -0.00935342 0
-0.000629791 -0.000114462 0
-0.00155481 0.0152624 0
-0.00665071 0.0372032 0
-0.0149391 0.0521782 0
-0.025157 0.0621624 0
-0.0365446 0.0687971 0
-0.0486699 0.0731791 0
-0.0612819 0.0758988 0
-0.074211 0.0771726 0
-0.0873106 0.0769856 0
-0.100426 0.075205 0
-0.11338 0.0716593 0
-0.125964 0.0661872 0
-0.137937 0.0586688 0
-0.149022 0.0490456 0
-0.158909 0.0373374 0
-0.167261 0.0236565 0
-0.173724 0.00822072 0
-0.177933 -0.00863662 0
-0.179549 -0.0265221 0
-0.178234 -0.0448776 0
-0.173654 -0.0628829 0
-0.165534 -0.0795108 0
-0.153712 -0.0935556 0
-0.138207 -0.103677 0
-0.119325 -0.108498 0
-0.0977697 -0.106796 0
-0.0747478 -0.0978235 0
-0.0519976 -0.0817732 0
-0.0316281 -0.0602848 0
-0.015675 -0.0367026 0
-0.0054287 -0.0156227 0
-0.000911983 -0.00165624 0
-0.00160318 0.0184204 0
-0.00686193 0.0443998 0
-0.0154237 0.0618317 0
-0.0259889 0.073292 0
-0.0377752 0.0808413 0
-0.0503402 0.0858252 0
-0.0634334 0.0889578 0
-0.0768931 0.0905023 0
-0.0905851 0.0904475 0
-0.104369 0.0886428 0
-0.118082 0.0848879 0
-0.131526 0.0789874 0
-0.144469 0.0707841 0
-0.156637 0.0601825 0
-0.167717 0.047168 0
-0.177364 0.0318259 0
-0.185207 0.0143571 0
-0.190862 -0.00490855 0
-0.193961 -0.0255361 0
-0.19413 -0.0470092 0
-0.190972 -0.0684894 0
-0.184105 -0.0888911 0
-0.173212 -0.106891 0
-0.158114 -0.120943 0
-0.138894 -0.129334 0
-0.116051 -0.130358 0
-0.0906809 -0.122653 0
-0.0646018 -0.105773 0
-0.0403007 -0.0809557 0
-0.0205042 -0.0517812 0
-0.00730752 -0.0239871 0
-0.00127392 -0.00384214 0
-0.00160012 0.0216237 0
-0.00687185 0.051727 0
-0.0154923 0.0716867 0
-0.0261656 0.0846756 0
-0.0380999 0.0931782 0
-0.0508439 0.0987973 0
-0.0641447 0.10238 0
-0.0778457 0.104241 0
-0.091824 0.104379 0
-0.105954 0.102626 0
-0.120089 0.0987528 0
-0.134051 0.0925287 0
-0.147622 0.0837568 0
-0.160546 0.072301 0
-0.172525 0.0581091 0
-0.183227 0.0412334 0
-0.192285 0.0218516 0
-0.199317 0.000283639 0
-0.203942 -0.0230053 0
-0.20577 -0.0475427 0
-0.204367 -0.0725166 0
-0.199262 -0.0968365 0
-0.18998 -0.119122 0
-0.176119 -0.137671 0
-0.157478 -0.150467 0
-0.134255 -0.155292 0
-0.107299 -0.150047 0
-0.0783605 -0.133397 0
-0.050195 -0.105798 0
-0.0262425 -0.0706875 0
-0.00961978 -0.0349001 0
-0.00173319 -0.00684925 0
-0.00154287 0.0247667 0
-0.00666955 0.0589824 0
-0.0151213 0.0815035 0
-0.0256469 0.0960578 0
-0.0374569 0.10554 0
-0.0500904 0.111813 0
-0.0632877 0.115862 0
-0.0768931 0.118065 0
-0.0907923 0.118432 0
-0.104875 0.116785 0
-0.119015 0.112868 0
-0.133056 0.106416 0
-0.146811 0.097195 0
-0.160053 0.0850289 0
-0.17252 0.0698276 0
-0.183913 0.0516087 0
-0.193899 0.0305214 0
-0.20212 0.00686622 0
-0.208197 -0.0188857 0
-0.211754 -0.0462775 0
-0.212358 -0.07458 0
-0.209474 -0.102763 0
-0.202483 -0.129467 0
-0.19075 -0.15292 0
-0.173743 -0.170865 0
-0.151267 -0.180593 0
-0.123779 -0.179189 0
-0.0927824 -0.16419 0
-0.0611228 -0.13483 0
-0.0328919 -0.093839 0
-0.0124117 -0.0488515 0
-0.00230687 -0.0108893 0
-0.00143258 0.0277421 0
-0.00625799 0.0659591 0
-0.0143133 0.0910339 0
-0.0244307 0.10717 0
-0.0358344 0.117641 0
-0.0480523 0.124563 0
-0.060812 0.129069 0
-0.0739541 0.131606 0
-0.0873699 0.132207 0
-0.100964 0.130688 0
-0.114633 0.126774 0
-0.128252 0.120171 0
-0.14167 0.110613 0
-0.154705 0.0978891 0
-0.167148 0.0818767 0
-0.178756 0.0625608 0
-0.189259 0.0400589 0
-0.198351 0.0146411 0
-0.205683 -0.0132513 0
-0.210916 -0.0431221 0
-0.213659 -0.0743881 0
-0.21335 -0.106149 0
-0.209261 -0.13716 0
-0.20053 -0.165691 0
-0.186274 -0.189357 0
-0.165825 -0.205027 0
-0.139115 -0.208952 0
-0.107191 -0.197349 0
-0.0727526 -0.167769 0
-0.0403814 -0.121502 0
-0.0157111 -0.0663388 0
-0.00301095 -0.0162071 0
-0.0012749 0.0304496 0
-0.00565626 0.0724584 0
-0.0131013 0.100035 0
-0.0225602 0.117746 0
-0.0332808 0.129191 0
-0.0447779 0.136729 0
-0.0567618 0.141647 0
-0.0690638 0.144472 0
-0.0815784 0.145271 0
-0.0942254 0.143865 0
-0.106926 0.139967 0
-0.119591 0.133262 0
-0.132113 0.123462 0
-0.144368 0.11033 0
-0.15621 0.0937196 0
-0.167473 0.0735893 0
-0.177968 0.0500288 0
-0.187477 0.0232726 0
-0.195742 -0.00628613 0
-0.202482 -0.0381152 0
-0.207347 -0.0717866 0
-0.20981 -0.106597 0
-0.209088 -0.141524 0
-0.204131 -0.175015 0
-0.193709 -0.204711 0
-0.176636 -0.227195 0
-0.152193 -0.237937 0
-0.120763 -0.231718 0
-0.0846188 -0.203982 0
-0.0485614 -0.153718 0
-0.0195238 -0.0878304 0
-0.00386069 -0.0230788 0
-0.00108017 0.0328047 0
-0.00490061 0.0783051 0
-0.0115517 0.108284 0
-0.0201278 0.127531 0
-0.0299097 0.139908 0
-0.0403986 0.147998 0
-0.051283 0.153246 0
-0.0623817 0.156273 0
-0.0735909 0.157193 0
-0.0848452 0.155844 0
-0.0960939 0.151937 0
-0.107287 0.14515 0
-0.118368 0.135178 0
-0.129274 0.121774 0
-0.139933 0.104776 0
-0.150268 0.0841302 0
-0.160191 0.0599069 0
-0.169599 0.0323115 0
-0.17835 0.00169119 0
-0.186249 -0.0314548 0
-0.19303 -0.0668004 0
-0.198253 -0.103897 0
-0.201147 -0.142053 0
-0.200538 -0.180051 0
-0.194889 -0.215746 0
-0.182488 -0.245633 0
-0.161881 -0.264549 0
-0.13259 -0.265827 0
-0.0961479 -0.24246 0
-0.0572083 -0.190237 0
-0.0238346 -0.113723 0
-0.0048724 -0.0318118 0
-0.000863155 0.034748 0
-0.00404438 0.0833634 0
-0.00976452 0.115597 0
-0.0172766 0.136306 0
-0.0259013 0.149539 0
-0.0351275 0.158082 0
-0.0446209 0.16354 0
-0.0541868 0.166644 0
-0.0637228 0.167568 0
-0.0731813 0.166182 0
-0.0825422 0.162209 0
-0.0917986 0.155327 0
-0.100948 0.145232 0
-0.109993 0.131671 0
-0.11894 0.114485 0
-0.127801 0.093618 0
-0.136598 0.06914 0
-0.145352 0.0412395 0
-0.154057 0.0102194 0
-0.162637 -0.0235041 0
-0.170951 -0.0596565 0
-0.178692 -0.0980763 0
-0.185175 -0.138496 0
-0.189199 -0.180192 0
-0.189001 -0.221453 0
-0.182389 -0.25894 0
-0.167137 -0.287103 0
-0.141749 -0.297951 0
-0.106697 -0.28183 0
-0.0660376 -0.230467 0
-0.0286138 -0.144291 0
-0.00606772 -0.042752 0
-0.000642684 0.0362539 0
-0.00315711 0.0875533 0
-0.00787306 0.121843 0
-0.014199 0.143898 0
-0.0214989 0.157872 0
-0.0292534 0.166729 0
-0.0371086 0.172241 0
-0.0448592 0.175259 0
-0.0524084 0.176038 0
-0.0597296 0.174492 0
-0.0668385 0.170369 0
-0.0737753 0.16336 0
-0.0805952 0.153168 0
-0.087366 0.13955 0
-0.0941694 0.122355 0
-0.101105 0.101544 0
-0.108294 0.0771998 0
-0.115875 0.0495142 0
-0.123985 0.0187597 0
-0.1327 -0.0147485 0
-0.142027 -0.0507722 0
-0.151822 -0.0894246 0
-0.161566 -0.13092 0
-0.170142 -0.175168 0
-0.175698 -0.221119 0
-0.175669 -0.265913 0
-0.167096 -0.303955 0
-0.147368 -0.326215 0
-0.115595 -0.320391 0
-0.0747221 -0.273439 0
-0.0338279 -0.179637 0
-0.00748012 -0.0562998 0
-0.00044127 0.0373378 0
-0.00232392 0.0908664 0
-0.00604277 0.126965 0
-0.0111346 0.150194 0
-0.0170039 0.164745 0
-0.0231302 0.173737 0
-0.0291496 0.179108 0
-0.0348555 0.181849 0
-0.0401642 0.182307 0
-0.0450777 0.180458 0
-0.0496534 0.176087 0
-0.0539834 0.168909 0
-0.0581834 0.15864 0
-0.0623876 0.145054 0
-0.0667493 0.128017 0
-0.0714453 0.107514 0
-0.0766797 0.0836533 0
-0.0826879 0.0566499 0
-0.0897278 0.0267738 0
-0.0980448 -0.00573008 0
-0.107798 -0.0407108 0
-0.119008 -0.0784817 0
-0.131386 -0.119741 0
-0.14403 -0.165127 0
-0.155173 -0.214462 0
-0.162066 -0.265705 0
-0.161146 -0.313657 0
-0.148677 -0.34871 0
-0.122171 -0.356174 0
-0.0829043 -0.317795 0
-0.0394493 -0.21963 0
-0.00916176 -0.0729417 0
-0.000285479 0.0380646 0
-0.00164683 0.0933836 0
-0.00447297 0.130993 0
-0.0083698 0.155155 0
-0.0127704 0.170054 0
-0.0171646 0.178948 0
-0.0211973 0.183949 0
-0.0246776 0.186194 0
-0.0275492 0.186142 0
-0.029853 0.18384 0
-0.0316954 0.179123 0
-0.0332262 0.171734 0
-0.0346243 0.161413 0
-0.0360908 0.147951 0
-0.0378483 0.131239 0
-0.0401436 0.111284 0
-0.0432499 0.0882245 0
-0.0474721 0.0623091 0
-0.0531493 0.0338317 0
-0.0606385 0.00301817 0
-0.0702381 -0.030106 0
-0.0821354 -0.0659797 0
-0.0962919 -0.105708 0
-0.11213 -0.150677 0
-0.128173 -0.201726 0
-0.141753 -0.257969 0
-0.14895 -0.315118 0
-0.14503 -0.363637 0
-0.125756 -0.387027 0
-0.0901901 -0.361775 0
-0.0454561 -0.263839 0
-0.0111868 -0.0932902 0
-0.000207931 0.038558 0
-0.00125053 0.0952942 0
-0.00340379 0.134062 0
-0.00624127 0.158821 0
-0.00920151 0.17375 0
-0.0118037 0.182249 0
-0.0137324 0.186609 0
-0.0148412 0.188123 0
-0.0151223 0.187366 0
-0.0146695 0.184467 0
-0.0136472 0.179316 0
-0.0122677 0.171692 0
-0.010776 0.161361 0
-0.00943996 0.148134 0
-0.00854995 0.131924 0
-0.00841903 0.112763 0
-0.00937906 0.0908117 0
-0.0117807 0.0663457 0
-0.0159963 0.0396879 0
-0.0224177 0.0110727 0
-0.0314254 -0.0195532 0
-0.0433272 -0.0527334 0
-0.0583018 -0.0898231 0
-0.0761576 -0.132868 0
-0.0959118 -0.183737 0
-0.115304 -0.242985 0
-0.130435 -0.307773 0
-0.135872 -0.369465 0
-0.125647 -0.410698 0
-0.0961051 -0.403212 0
-0.0518046 -0.311436 0
-0.0136448 -0.118122 0
-0.000252668 0.0390186 0
-0.00129691 0.0969204 0
-0.00313281 0.136425 0
-0.00514563 0.161308 0
-0.00674779 0.175825 0
-0.00752046 0.183549 0
-0.0072374 0.186955 0
-0.00583922 0.187488 0
-0.00339595 0.185838 0
-7.24526e-05 0.182218 0
0.00389882 0.176571 0
0.00823783 0.168718 0
0.0126317 0.15845 0
0.0167417 0.145599 0
0.0202098 0.1301 0
0.0226659 0.111999 0
0.0237333 0.0914677 0
0.0230387 0.0687859 0
0.0202207 0.0442812 0
0.0149266 0.018195 0
0.00678841 -0.00952967 0
-0.00455547 -0.0395111 0
-0.01943 -0.0731962 0
-0.0379863 -0.113082 0
-0.0598723 -0.161882 0
-0.0835751 -0.221746 0
-0.105713 -0.291743 0
-0.120669 -0.365102 0
-0.121004 -0.424951 0
-0.0999959 -0.439509 0
-0.0583602 -0.361075 0
-0.0166182 -0.148385 0
-0.000486888 0.0397581 0
-0.00201454 0.0987527 0
-0.00404566 0.138459 0
-0.00555526 0.162796 0
-0.0059031 0.176287 0
-0.00479249 0.182749 0
-0.00216075 0.18484 0
0.00191064 0.184133 0
0.00723484 0.181426 0
0.0135436 0.176998 0
0.0205222 0.170841 0
0.0278235 0.162808 0
0.0350724 0.152717 0
0.0418712 0.140423 0
0.0478074 0.125872 0
0.0524648 0.109114 0
0.0554344 0.0903158 0
0.0563305 0.0697363 0
0.0548064 0.0476728 0
0.05056 0.0243439 0
0.0433212 -0.000301473 0
0.0328276 -0.0269019 0
0.0187937 -0.056897 0
0.000807345 -0.0928391 0
-0.0214681 -0.137964 0
-0.0474917 -0.195937 0
-0.0749433 -0.267961 0
-0.098776 -0.350095 0
-0.110699 -0.427699 0
-0.100853 -0.467615 0
-0.0647628 -0.410696 0
-0.020133 -0.185136 0
-0.00102406 0.0412691 0
-0.00375081 0.101496 0
-0.00666003 0.140656 0
-0.00802917 0.163478 0
-0.00718114 0.175105 0
-0.00405274 0.179692 0
0.00115072 0.180062 0
0.00812254 0.177868 0
0.0165064 0.173983 0
0.0259174 0.168722 0
0.0359585 0.162098 0
0.0462202 0.153988 0
0.0562778 0.14423 0
0.0656921 0.132697 0
0.0740174 0.119337 0
0.080813 0.104196 0
0.0856592 0.087418 0
0.0881766 0.0692206 0
0.0880458 0.0498436 0
0.0850177 0.0294475 0
0.0789025 0.00794902 0
0.0695051 -0.0152615 0
0.0565658 -0.0415641 0
0.039711 -0.0733308 0
0.0184614 -0.113947 0
-0.00769014 -0.167779 0
-0.0381296 -0.238229 0
-0.0692794 -0.324845 0
-0.0930952 -0.41721 0
-0.0970433 -0.484001 0
-0.0701986 -0.457245 0
-0.0240733 -0.229342 0
-0.00206524 0.0443584 0
-0.00704914 0.106118 0
-0.0116606 0.143556 0
-0.0131745 0.163461 0
-0.0110162 0.172115 0
-0.00555706 0.174095 0
0.00257942 0.17232 0
0.0127736 0.168444 0
0.0244629 0.163333 0
0.0371395 0.157284 0
0.0503325 0.150302 0
0.0635872 0.142268 0
0.0764511 0.133029 0
0.0884691 0.122465 0
0.0991888 0.110523 0
0.108173 0.0972304 0
0.115016 0.0826947 0
0.119364 0.0670781 0
0.120935 0.0505463 0
0.119524 0.0331833 0
0.114995 0.0148577 0
0.107209 -0.00498711 0
0.0959237 -0.0276135 0
0.0807417 -0.0552446 0
0.0610772 -0.0911195 0
0.0361267 -0.139505 0
0.00517428 -0.205111 0
-0.0308159 -0.290823 0
-0.0658065 -0.392426 0
-0.0859264 -0.484718 0
-0.0730322 -0.496267 0
-0.0280307 -0.281446 0
-0.00396175 0.0503853 0
-0.0127197 0.113832 0
-0.0198235 0.147556 0
-0.0214067 0.162558 0
-0.0174068 0.16686 0
-0.00895881 0.165442 0
0.00272243 0.161154 0
0.0166356 0.155502 0
0.0320015 0.14922 0
0.0482052 0.142517 0
0.064729 0.135352 0
0.0811033 0.127588 0
0.0968786 0.119069 0
0.111615 0.109671 0
0.124884 0.0993285 0
0.136281 0.0880443 0
0.145437 0.0758815 0
0.152041 0.062939 0
0.15585 0.049306 0
0.156694 0.0349903 0
0.15446 0.0198141 0
0.149039 0.00326302 0
0.140198 -0.0157363 0
0.127487 -0.0392297 0
0.110178 -0.0701603 0
0.0871437 -0.112479 0
0.05696 -0.171 0
0.0186684 -0.250652 0
-0.0254717 -0.353467 0
-0.0633722 -0.465657 0
-0.070218 -0.521377 0
-0.0310398 -0.340517 0
-0.00726816 0.0616153 0
-0.0217295 0.125822 0
-0.0314692 0.15241 0
-0.0320347 0.159852 0
-0.024767 0.158298 0
-0.0120144 0.152804 0
0.00427832 0.145819 0
0.0227257 0.138477 0
0.0423779 0.131227 0
0.0625707 0.124113 0
0.0827909 0.117012 0
0.102599 0.109747 0
0.121586 0.102148 0
0.139364 0.0940787 0
0.155557 0.085458 0
0.169818 0.0762578 0
0.181834 0.0664957 0
0.191343 0.0562112 0
0.198141 0.0454271 0
0.202075 0.0340915 0
0.203024 0.0219974 0
0.200854 0.00867069 0
0.195344 -0.00679225 0
0.185995 -0.0261144 0
0.171867 -0.0518381 0
0.151482 -0.0873826 0
0.122753 -0.137184 0
0.0833495 -0.206774 0
0.032399 -0.302254 0
-0.023209 -0.423361 0
-0.0563364 -0.5237 0
-0.0310758 -0.402632 0
-0.0125803 0.0814638 0
-0.0341761 0.14203 0
-0.0442181 0.155983 0
-0.0402116 0.152838 0
-0.0264298 0.144263 0
-0.00683699 0.134494 0
0.0159389 0.125061 0
0.040287 0.11644 0
0.0652481 0.108651 0
0.090225 0.10152 0
0.114791 0.0948188 0
0.138596 0.0883275 0
0.16132 0.0818553 0
0.182659 0.0752551 0
0.202319 0.0684277 0
0.220029 0.0613183 0
0.235541 0.0539063 0
0.248647 0.0461851 0
0.259172 0.0381312 0
0.266965 0.0296597 0
0.271883 0.0205624 0
0.273737 0.010422 0
0.272223 -0.00152028 0
0.266762 -0.0165753 0
0.256245 -0.0367325 0
0.238828 -0.0646865 0
0.211807 -0.10413 0
0.171715 -0.160332 0
0.115231 -0.241263 0
0.0433203 -0.356833 0
-0.0219762 -0.491803 0