# vtk DataFile Version 2.0
Lid-driven cavity
ASCII
DATASET STRUCTURED_POINTS
DIMENSIONS 32 32 1
ORIGIN 0.015625 0.015625 0
SPACING 0.03125 0.03125 1
POINT_DATA 1024
SCALARS pressure double 1
LOOKUP_TABLE default
18.9295
18.8368
18.691
18.5445
18.4269
18.3517
18.3248
18.3496
18.43
18.5711
18.7786
19.058
19.4126
19.8421
20.3408
20.897
21.4916
22.0998
22.6894
23.2244
23.6688
23.9919
24.1729
24.2058
24.1012
23.8853
23.597
23.282
22.9877
22.7575
22.6258
22.6059
19.0223
18.926
18.8071
18.6944
18.6062
18.5526
18.5391
18.5696
18.6485
18.7811
18.9728
19.2287
19.552
19.9425
20.3956
20.9008
21.4412
21.9948
22.5324
23.0211
23.428
23.7252
23.8945
23.9312
23.8461
23.6642
23.4211
23.1564
22.9101
22.7165
22.6027
22.586
19.1728
19.0375
18.9145
18.8138
18.7415
18.7008
18.6939
18.7238
18.7944
18.9113
19.0806
19.3081
19.5981
19.9523
20.3678
20.8362
21.3427
21.8668
22.3803
22.8508
23.2453
23.5353
23.7021
23.7404
23.6609
23.4886
23.2587
23.0101
22.7785
22.5943
22.4808
22.456
19.322
19.1331
18.9898
18.8868
18.8186
18.7809
18.7718
18.792
18.8453
18.9375
19.076
19.2683
19.5212
19.8389
20.2213
20.663
21.1513
21.6657
22.1784
22.6555
23.0617
23.3654
23.5444
23.5908
23.5138
23.3385
23.1015
22.8431
22.6
22.4013
22.2688
22.2192
19.4192
19.1731
19.0023
18.8879
18.8139
18.7688
18.7466
18.7461
18.7706
18.8267
18.9235
19.0712
19.2797
19.5568
19.9062
20.326
20.8064
21.3267
21.8586
22.3664
22.8108
23.1545
23.3691
23.4409
23.3752
23.1959
22.9412
22.6551
22.3786
22.1437
21.9735
21.8847
19.419
19.1167
18.9159
18.7843
18.696
18.6331
18.5858
18.5514
18.533
18.5385
18.5793
18.6688
18.8208
19.0476
19.3575
19.7533
20.2293
20.7654
21.3341
21.8974
22.4108
22.8292
23.1143
23.2426
23.2113
23.0399
22.7674
22.4427
22.1147
21.8233
21.5969
21.456
19.2783
18.923
18.6921
18.5391
18.4286
18.3368
18.2511
18.1674
18.0892
18.0259
17.9916
18.0034
18.0797
18.2382
18.4932
18.8533
19.3187
19.8733
20.4919
21.1354
21.7537
22.2915
22.6968
22.9305
22.9752
22.8408
22.5634
22.1978
21.8042
21.4362
21.1342
20.9272
18.9551
18.5516
18.2911
18.1128
17.972
17.8397
17.7005
17.5495
17.3909
17.2356
17.1007
17.0073
16.9794
17.0409
17.2136
17.5137
17.9494
18.5137
19.1877
19.9336
20.6961
21.4082
21.9998
22.4093
22.596
22.551
22.3013
21.905
21.4376
20.9741
20.5754
20.2843
18.4097
17.9637
17.6742
17.4664
17.2864
17.1003
16.8903
16.651
16.3867
16.1102
15.8412
15.6056
15.4332
15.3557
15.4039
15.6041
15.9746
16.5237
17.2458
18.1084
19.0537
20.0026
20.8629
21.5428
21.9673
22.0956
21.9341
21.5378
20.9991
20.4232
19.9033
19.5057
17.6062
17.124
16.806
16.5635
16.3341
16.0792
15.7787
15.4261
15.026
14.5921
14.1472
13.7214
13.3513
13.0777
12.9426
12.9853
13.2371
13.7243
14.4681
15.4471
16.6057
17.8547
19.0781
20.1465
20.9378
21.3625
21.3879
21.0531
20.4639
19.7648
19.097
18.5644
16.5145
16.0035
15.657
15.3738
15.0833
14.7428
14.3294
13.8354
13.2643
12.6309
11.9597
11.2854
10.6518
10.1101
9.71599
9.52498
9.58667
9.94088
10.6541
11.7263
13.1109
14.714
16.3969
17.9883
19.307
20.1943
20.5539
20.3855
19.7963
18.9756
18.1327
17.43
15.1138
14.582
14.2068
13.8758
13.5117
13.0674
12.5173
11.8511
11.071
10.1911
9.23736
8.24844
7.2756
6.38156
5.63772
5.1193
4.89812
5.03357
5.63296
6.74429
8.33898
10.3267
12.5526
14.804
16.8317
18.3883
19.2831
19.4415
18.9463
18.0279
16.9857
16.0714
13.3942
12.8503
12.446
12.0603
11.6101
11.0441
10.3334
9.46452
8.43696
7.26295
5.96876
4.59626
3.20395
1.86673
0.673534
-0.277837
-0.88917
-1.07393
-0.698651
0.364093
2.11491
4.47973
7.29937
10.328
13.2478
15.7071
17.3883
18.097
17.8474
16.8906
15.6344
14.4612
11.3591
10.8123
10.3792
9.93285
9.38549
8.68218
7.79007
6.69161
5.38224
3.87108
2.18327
0.362758
-1.52537
-3.39405
-5.13588
-6.62822
-7.74246
-8.35794
-8.33299
-7.43871
-5.62833
-2.94467
0.466402
4.34301
8.30927
11.9051
14.6581
16.2019
16.4179
15.5321
14.0651
12.5817
9.02592
8.4853
8.02498
7.51454
6.86302
6.01198
4.9243
3.57742
1.96156
0.0813077
-2.04083
-4.36022
-6.80639
-9.28095
-11.6582
-13.7899
-15.5147
-16.6727
-17.1165
-16.534
-14.8006
-11.9129
-7.98209
-3.26032
1.8431
6.77188
10.8852
13.5941
14.5666
13.9253
12.2804
10.4337
6.42517
5.89978
5.4157
4.84203
4.08577
3.08517
1.7985
0.197423
-1.73417
-3.99754
-6.57423
-9.4205
-12.4621
-15.5909
-18.6644
-21.5096
-23.9331
-25.736
-26.7373
-26.6149
-25.123
-22.1972
-17.8937
-12.4227
-6.18881
0.188778
5.90993
10.1278
12.2081
12.0577
10.3106
8.04983
3.59855
3.09658
2.59502
1.96511
1.11272
-0.027187
-1.50142
-3.34483
-5.58078
-8.21745
-11.2417
-14.6123
-18.2529
-22.0476
-25.8395
-29.4339
-32.6073
-35.1239
-36.7585
-37.2107
-36.1276
-33.363
-28.8994
-22.8726
-15.6339
-7.81123
-0.324507
5.71419
9.28895
9.94914
8.23122
5.51161
0.594939
0.122998
-0.38629
-1.05743
-1.98537
-3.23899
-4.87101
-6.92364
-9.4283
-12.401
-15.8349
-19.6922
-23.8964
-28.326
-32.8128
-37.1439
-41.0707
-44.3245
-46.6382
-47.73
-47.1956
-44.7956
-40.4244
-34.1158
-26.1173
-16.995
-7.71714
0.372463
5.82485
7.67806
6.18695
2.97579
-2.5348
-2.97258
-3.47588
-4.16339
-5.13168
-6.45522
-8.19433
-10.3998
-13.112
-16.3553
-20.1298
-24.402
-29.0961
-34.0873
-39.199
-44.2046
-48.8366
-52.8009
-55.7973
-57.5404
-57.6357
-55.7737
-51.7469
-45.4722
-37.0503
-26.9087
-15.9666
-5.71911
1.94838
5.4199
4.42767
0.712184
-5.7441
-6.14725
-6.62632
-7.29348
-8.24969
-9.57884
-11.352
-13.6307
-16.4653
-19.889
-23.9085
-28.4949
-33.5736
-39.0179
-44.6455
-50.2206
-55.4626
-60.0608
-63.6944
-66.0543
-66.7929
-65.5741
-62.099
-56.1606
-47.6871
-36.8996
-24.5568
-12.1823
-2.03928
3.4988
3.36045
-0.837929
-8.99786
-9.37091
-9.80208
-10.3978
-11.2693
-12.5173
-14.2291
-16.4802
-19.3324
-22.8274
-26.9784
-31.7596
-37.0977
-42.8646
-48.8742
-54.885
-60.6087
-65.7257
-69.904
-72.819
-74.1542
-73.5912
-70.7895
-65.4168
-57.2254
-46.1833
-32.7822
-18.4218
-5.62007
2.45212
3.62505
-0.972433
-12.2805
-12.6345
-12.9867
-13.4413
-14.1318
-15.1875
-16.7211
-18.8267
-21.5789
-25.0272
-29.1892
-34.0405
-39.5074
-45.4603
-51.7109
-58.0145
-64.0793
-69.5822
-74.1877
-77.5672
-79.4114
-79.438
-77.3164
-72.6179
-64.9287
-53.9468
-39.8125
-23.6409
-8.02556
3.10346
6.19749
1.40343
-15.6065
-15.9602
-16.1899
-16.4084
-16.7919
-17.5183
-18.7381
-20.5696
-23.1004
-26.3861
-30.4451
-35.2529
-40.7331
-46.7523
-53.1184
-59.5843
-65.8569
-71.6133
-76.5201
-80.2513
-82.4983
-82.9935
-81.4395
-77.3749
-70.2363
-59.4599
-44.785
-26.8909
-8.22871
6.63337
12.5206
7.95869
-19.0359
-19.4155
-19.4566
-19.3055
-19.2184
-19.4509
-20.2069
-21.6348
-23.8351
-26.8647
-30.738
-35.4232
-40.8364
-46.837
-53.2272
-59.7559
-66.1293
-72.0257
-77.115
-81.0762
-83.6064
-84.4207
-83.21
-79.5635
-72.8254
-62.1584
-46.8932
-27.1417
-4.96705
14.6306
24.6487
21.1673
-22.704
-23.1378
-22.8776
-22.1624
-21.3906
-20.9357
-21.0722
-21.9766
-23.7558
-26.4603
-30.0928
-34.6075
-39.9075
-45.8412
-52.2027
-58.7356
-65.1438
-71.1061
-76.2939
-80.3876
-83.085
-84.0891
-83.0271
-79.4303
-72.6136
-61.6613
-45.4366
-23.3442
3.20777
29.1022
45.3793
44.5777
-26.8841
-27.3801
-26.6085
-25.032
-23.2916
-21.9247
-21.2856
-21.565
-22.8617
-25.2069
-28.5798
-32.913
-38.0906
-43.9465
-50.264
-56.7802
-63.1954
-69.186
-74.4207
-78.5738
-81.3319
-82.385
-81.2946
-77.4562
-70.06
-57.9501
-39.8155
-14.4529
17.8731
52.4206
78.3313
83.1072
-32.1311
-32.6015
-30.8977
-27.9853
-24.8963
-22.3655
-20.8077
-20.3955
-21.1904
-23.1836
-26.3177
-30.4945
-35.5742
-41.3726
-47.6609
-54.1683
-60.5897
-66.5967
-71.85
-76.009
-78.7346
-79.678
-78.3745
-73.995
-65.502
-51.4273
-29.9632
0.591072
40.6915
87.184
127.907
143.355
-39.6273
-39.6413
-36.1139
-31.0796
-26.1351
-22.1766
-19.5955
-18.4784
-18.8046
-20.4988
-23.4523
-27.5285
-32.5596
-38.3419
-44.6335
-51.1549
-57.5948
-63.6174
-68.8709
-72.9915
-75.5994
-76.2808
-74.5415
-69.2922
-59.1464
-42.2199
-16.0688
21.8933
73.2646
135.938
199.007
233.938
-52.0435
-49.9855
-42.6681
-34.2029
-26.7649
-21.1554
-17.5317
-15.7765
-15.7333
-17.2314
-20.0985
-24.1549
-29.2039
-35.0226
-41.3563
-47.9174
-54.3879
-60.4237
-65.6571
-69.695
-72.1063
-72.3935
-69.9412
-63.4809
-51.1157
-30.4444
1.74139
49.1869
115.32
200.723
296.177
365.824
-75.7037
-65.7205
-50.3196
-36.4592
-25.9622
-18.687
-14.1733
-11.9983
-11.8015
-13.292
-16.2271
-20.3855
-25.5453
-31.4681
-37.8906
-44.5198
-51.0329
-57.0778
-62.2704
-66.185
-68.331
-68.1085
-64.7335
-56.7143
-41.6726
-16.6446
22.4249
80.7444
164.516
279.644
423.977
552.131
-125.204
-86.2407
-55.1131
-34.2299
-20.9356
-12.7829
-8.21013
-6.28939
-6.44927
-8.31037
-11.592
-16.0567
-21.4764
-27.6118
-34.2009
-40.9529
-47.5461
-53.6244
-58.7905
-62.5883
-64.4686
-63.7252
-59.3889
-49.6843
-32.0021
-2.91057
42.4059
110.735
212.091
362.519
585.51
854.552
-247.027
-92.5487
-38.6414
-16.6193
-5.96367
-0.479281
1.97431
2.28226
0.89183
-1.92062
-5.94725
-11.0009
-16.8892
-23.399
-30.2883
-37.2816
-44.0678
-50.2958
-55.5651
-59.4045
-61.2296
-60.2631
-55.3813
-44.7366
-25.7072
5.33437
53.5621
126.735
238.017
415.26
733.42
1388.16
VECTORS velocity double
8.01965e-05 -8.01965e-05 0
0.000159693 7.00126e-07 0
1.90578e-05 0.000139935 0
-0.000387285 0.000266408 0
-0.00101673 0.000363038 0
-0.00181297 0.000433205 0
-0.00273067 0.000484494 0
-0.00373734 0.000522174 0
-0.00480713 0.000547615 0
-0.00591361 0.000558862 0
-0.00702438 0.000551909 0
-0.00809828 0.000521994 0
-0.00908498 0.000464708 0
-0.00992662 0.000376929 0
-0.0105612 0.000257644 0
-0.0109275 0.000108664 0
-0.0109713 -6.49011e-05 0
-0.0106517 -0.000254641 0
-0.00995025 -0.000446831 0
-0.00887934 -0.000624081 0
-0.00748813 -0.000767134 0
-0.00586358 -0.000857416 0
-0.00412594 -0.000880222 0
-0.0024177 -0.000828018 0
-0.000886597 -0.000703085 0
0.000335177 -0.000518689 0
0.00115223 -0.000298359 0
0.00152248 -7.18923e-05 0
0.00146802 0.000126345 0
0.00108349 0.000258188 0
0.000547796 0.000277506 0
0.000135145 0.000135145 0
-4.21085e-06 -0.000156182 0
-0.00026037 0.000253349 0
-0.00107015 0.000837698 0
-0.00246428 0.00136912 0
-0.00436019 0.00178569 0
-0.00664795 0.00209455 0
-0.00922638 0.00231928 0
-0.0120089 0.00247653 0
-0.0149153 0.00256946 0
-0.0178613 0.00258948 0
-0.0207502 0.00252097 0
-0.0234697 0.00234633 0
-0.025893 0.00205043 0
-0.0278844 0.00162424 0
-0.0293074 0.0010679 0
-0.0300358 0.000393121 0
-0.0299662 -0.000375251 0
-0.0290318 -0.0011982 0
-0.027217 -0.00201955 0
-0.0245688 -0.00277049 0
-0.0212047 -0.00337604 0
-0.0173136 -0.00376417 0
-0.0131475 -0.00387714 0
-0.00900329 -0.00368358 0
-0.00519294 -0.00318898 0
-0.0020058 -0.00244171 0
0.000333957 -0.00153214 0
0.00170896 -0.000583365 0
0.00213936 0.000261868 0
0.0017987 0.000847859 0
0.00101759 0.00100464 0
0.000283982 0.000554271 0
-0.000182687 3.0716e-05 0
-0.00100567 0.0011456 0
-0.00273069 0.00248024 0
-0.00527933 0.00366934 0
-0.00850719 0.00460924 0
-0.0122604 0.00531199 0
-0.0163979 0.0058178 0
-0.0207909 0.00615347 0
-0.0253125 0.0063205 0
-0.0298269 0.00629879 0
-0.0341827 0.00605636 0
-0.0382119 0.00555973 0
-0.0417345 0.00478296 0
-0.0445664 0.00371496 0
-0.0465312 0.00236501 0
-0.0474737 0.000766949 0
-0.0472742 -0.0010183 0
-0.045863 -0.00290065 0
-0.0432342 -0.00476072 0
-0.0394562 -0.00645555 0
-0.0346807 -0.00783052 0
-0.0291453 -0.00873626 0
-0.0231665 -0.00904992 0
-0.0171226 -0.00869891 0
-0.011423 -0.00768362 0
-0.00646373 -0.00609346 0
-0.00257339 -0.00411048 0
4.38978e-05 -0.00199731 0
0.00135901 -6.96989e-05 0
0.00154895 0.00133015 0
0.000998925 0.00185349 0
0.000299851 0.0011381 0
-0.000396978 0.000610381 0
-0.00189291 0.00288485 0
-0.0046699 0.005243 0
-0.00848057 0.00726589 0
-0.0130903 0.00885027 0
-0.0182957 0.0100296 0
-0.0239212 0.0108632 0
-0.029805 0.0113848 0
-0.0357839 0.0115896 0
-0.0416826 0.0114427 0
-0.0473092 0.0108949 0
-0.0524578 0.00989901 0
-0.0569147 0.00842322 0
-0.0604697 0.00646149 0
-0.0629273 0.00404095 0
-0.0641207 0.00122694 0
-0.0639244 -0.00187413 0
-0.0622659 -0.00511452 0
-0.0591354 -0.00830616 0
-0.0545987 -0.0112249 0
-0.0488086 -0.0136267 0
-0.0420123 -0.0152718 0
-0.0345504 -0.015955 0
-0.0268457 -0.0155425 0
-0.0193757 -0.0140097 0
-0.0126285 -0.0114739 0
-0.00703973 -0.00820915 0
-0.00292014 -0.00463554 0
-0.000386746 -0.00127998 0
0.000685563 0.00127818 0
0.000682683 0.00245836 0
0.000238516 0.00167647 0
-0.000624729 0.00163209 0
-0.00283674 0.00557108 0
-0.00672356 0.00922058 0
-0.0118388 0.0122142 0
-0.0178401 0.0145129 0
-0.024469 0.0162012 0
-0.0315186 0.0173666 0
-0.038802 0.0180487 0
-0.0461308 0.0182335 0
-0.0533034 0.0178701 0
-0.0601028 0.0168936 0
-0.0663008 0.0152469 0
-0.0716662 0.0128977 0
-0.075975 0.0098508 0
-0.0790221 0.00615644 0
-0.0806322 0.00191492 0
-0.0806698 -0.0027208 0
-0.0790465 -0.00754971 0
-0.0757287 -0.0123192 0
-0.0707533 -0.0167239 0
-0.0642456 -0.0204254 0
-0.0564335 -0.0230815 0
-0.0476551 -0.0243855 0
-0.0383561 -0.0241156 0
-0.029071 -0.0221915 0
-0.0203813 -0.018729 0
-0.0128476 -0.0140765 0
-0.00692016 -0.00881522 0
-0.00284431 -0.00370955 0
-0.000587589 0.000378715 0
0.00019386 0.00257925 0
0.000139306 0.00205429 0
-0.000854788 0.00311161 0
-0.00378755 0.00923634 0
-0.00878349 0.0144381 0
-0.0151882 0.0185166 0
-0.0225468 0.0215704 0
-0.030546 0.023772 0
-0.0389514 0.0252509 0
-0.0475591 0.0260555 0
-0.0561662 0.0261626 0
-0.0645578 0.0255053 0
-0.0725049 0.024005 0
-0.0797695 0.021598 0
-0.0861121 0.0182544 0
-0.0913011 0.0139918 0
-0.0951215 0.00888299 0
-0.0973836 0.00306053 0
-0.0979306 -0.00328179 0
-0.0966429 -0.00989972 0
-0.093444 -0.0164859 0
-0.0883201 -0.0226565 0
-0.0813461 -0.0279746 0
-0.072707 -0.0319835 0
-0.0627165 -0.0342525 0
-0.0518253 -0.0344388 0
-0.0406145 -0.0323642 0
-0.0297624 -0.0280981 0
-0.0199761 -0.0220273 0
-0.0118862 -0.0148818 0
-0.0059185 -0.00768645 0
-0.00218192 -0.00163768 0
-0.000410644 0.00204292 0
2.04689e-05 0.00221407 0
-0.00107815 0.00504455 0
-0.0047057 0.0138637 0
-0.0107625 0.0208635 0
-0.0183921 0.0261255 0
-0.0270327 0.0299607 0
-0.0363213 0.0326694 0
-0.0460022 0.0344398 0
-0.0558625 0.0353346 0
-0.0656944 0.0353226 0
-0.0752805 0.0343228 0
-0.0843899 0.0322441 0
-0.092783 0.0290166 0
-0.100217 0.0246122 0
-0.106452 0.019058 0
-0.111258 0.012444 0
-0.114424 0.00492708 0
-0.115757 -0.00326781 0
-0.115096 -0.0118625 0
-0.112309 -0.0205089 0
-0.107317 -0.0287496 0
-0.100126 -0.0360468 0
-0.0908581 -0.0418182 0
-0.0797798 -0.0454867 0
-0.0673236 -0.046552 0
-0.0540987 -0.0446868 0
-0.0408738 -0.0398526 0
-0.0285172 -0.0324157 0
-0.0178806 -0.02322 0
-0.00963416 -0.0135624 0
-0.0040952 -0.0050373 0
-0.00112208 0.000698136 0
-0.000114437 0.0021201 0
-0.00128531 0.00740802 0
-0.00555251 0.019395 0
-0.0125797 0.0284162 0
-0.0213258 0.0349485 0
-0.0311348 0.0395872 0
-0.0416022 0.0427989 0
-0.0524583 0.0448474 0
-0.0634881 0.045817 0
-0.0744874 0.0456715 0
-0.085244 0.0443165 0
-0.0955326 0.0416484 0
-0.105116 0.0375888 0
-0.113749 0.0321069 0
-0.121183 0.0252319 0
-0.127168 0.0170617 0
-0.13146 0.0077669 0
-0.133827 -0.00240742 0
-0.134057 -0.013154 0
-0.13196 -0.0241011 0
-0.127384 -0.0347258 0
-0.120254 -0.0443913 0
-0.110612 -0.0523838 0
-0.0986501 -0.0579614 0
-0.0847521 -0.0604314 0
-0.069523 -0.0592613 0
-0.0537978 -0.0542282 0
-0.0386029 -0.0455916 0
-0.0250429 -0.0342407 0
-0.0141009 -0.0217301 0
-0.00639112 -0.0101183 0
-0.00196453 -0.00162059 0
-0.000269506 0.00173616 0
-0.00146592 0.0101593 0
-0.00628835 0.0257334 0
-0.0141558 0.0369724 0
-0.0238699 0.0448525 0
-0.0346964 0.0503186 0
-0.046199 0.0540376 0
-0.0581004 0.0563661 0
-0.0701894 0.0574171 0
-0.0822714 0.0571527 0
-0.0941449 0.0554655 0
-0.105594 0.0522373 0
-0.116388 0.0473769 0
-0.126279 0.0408429 0
-0.135007 0.0326573 0
-0.1423 0.0229147 0
-0.147882 0.0117879 0
-0.151476 -0.000467378 0
-0.152823 -0.0135174 0
-0.151675 -0.026982 0
-0.14781 -0.0402866 0
-0.141065 -0.0527048 0
-0.131384 -0.0633935 0
-0.118859 -0.071438 0
-0.103787 -0.0759251 0
-0.0867214 -0.0760623 0
-0.068518 -0.0713558 0
-0.0503323 -0.0618447 0
-0.0335304 -0.0483495 0
-0.0194717 -0.0326221 0
-0.00917381 -0.017234 0
-0.00298593 -0.00511934 0
-0.000456351 0.0010103 0
-0.00160932 0.0132345 0
-0.00687386 0.0327451 0
-0.015414 0.0463682 0
-0.0259095 0.0556663 0
-0.0375658 0.0619875 0
-0.0499232 0.0662288 0
-0.0627014 0.0688544 0
-0.0756972 0.0700136 0
-0.0887288 0.0696697 0
-0.101609 0.0677024 0
-0.114135 0.0639757 0
-0.126082 0.0583793 0
-0.137204 0.0508532 0
-0.147231 0.0414019 0
-0.155873 0.0301056 0
-0.162824 0.0171295 0
-0.16777 0.00273139 0
-0.170406 -0.012734 0
-0.170437 -0.0288818 0
-0.167579 -0.04511 0
-0.161584 -0.060621 0
-0.152285 -0.0744572 0
-0.139648 -0.0855358 0
-0.123839 -0.0927095 0
-0.105301 -0.0948807 0
-0.0848462 -0.091196 0
-0.0636976 -0.0813389 0
-0.0434576 -0.0658971 0
-0.0259017 -0.0466891 0
-0.0125674 -0.0267992 0
-0.00424816 -0.0100612 0
-0.000689755 -0.000135806 0
-0.0017055 0.0165493 0
-0.00727257 0.0402619 0
-0.0162841 0.0564031 0
-0.0273394 0.0671823 0
-0.0396016 0.07439 0
-0.0525941 0.0791764 0
-0.0660358 0.0821268 0
-0.0797328 0.083434 0
-0.0935178 0.0830659 0
-0.10722 0.0808888 0
-0.12065 0.0767457 0
-0.133596 0.0705021 0
-0.145815 0.0620711 0
-0.157035 0.0514313 0
-0.166956 0.0386394 0
-0.175254 0.0238441 0
-0.181588 0.00729712 0
-0.185615 -0.0106371 0
-0.187009 -0.029554 0
-0.185442 -0.048862 0
-0.180586 -0.0677204 0
-0.172158 -0.0850846 0
-0.159977 -0.0997264 0
-0.144035 -0.11027 0
-0.124605 -0.115287 0
-0.102365 -0.113485 0
-0.0785185 -0.104046 0
-0.0548346 -0.0871143 0
-0.0335046 -0.0643577 0
-0.0166913 -0.0392783 0
-0.0058177 -0.0167749 0
-0.000986332 -0.00181189 0
-0.00174616 0.020001 0
-0.00745433 0.0480855 0
-0.0167077 0.0668444 0
-0.0280711 0.0791598 0
-0.0406822 0.0872857 0
-0.0540515 0.0926424 0
-0.0678969 0.0959478 0
-0.0820327 0.0974457 0
-0.0963057 0.0971122 0
-0.110562 0.0948009 0
-0.12463 0.090332 0
-0.138311 0.0835425 0
-0.151376 0.0743141 0
-0.16356 0.0625929 0
-0.174567 0.0484063 0
-0.184071 0.0318792 0
-0.191724 0.0132486 0
-0.197161 -0.00712368 0
-0.200041 -0.0287944 0
-0.200008 -0.0512211 0
-0.19667 -0.0735557 0
-0.189637 -0.0947095 0
-0.178569 -0.113351 0
-0.163248 -0.127908 0
-0.143708 -0.136619 0
-0.120404 -0.137698 0
-0.0943985 -0.129685 0
-0.0675178 -0.11204 0
-0.0423119 -0.0859679 0
-0.0216379 -0.0551554 0
-0.00775779 -0.0256515 0
-0.0013631 -0.00416133 0
-0.00172585 0.023473 0
-0.00739901 0.0559948 0
-0.0166448 0.0774342 0
-0.0280419 0.0913306 0
-0.0407185 0.100403 0
-0.0541735 0.10635 0
-0.0681209 0.110033 0
-0.0823804 0.111756 0
-0.0968112 0.111506 0
-0.111276 0.109128 0
-0.125624 0.10442 0
-0.139676 0.0971878 0
-0.153223 0.0872809 0
-0.166024 0.0746112 0
-0.177802 0.0591734 0
-0.18825 0.0410641 0
-0.197033 0.0204992 0
-0.203799 -0.002171 0
-0.208199 -0.0264679 0
-0.209868 -0.0519114 0
-0.20838 -0.0776909 0
-0.203257 -0.10273 0
-0.193996 -0.125659 0
-0.18015 -0.144767 0
-0.161457 -0.157993 0
-0.138046 -0.163038 0
-0.110712 -0.157683 0
-0.081181 -0.140453 0
-0.0522419 -0.111699 0
-0.0274534 -0.0748864 0
-0.0101223 -0.0371318 0
-0.00183682 -0.00736126 0
-0.00164298 0.0268418 0
-0.00709993 0.063756 0
-0.0160802 0.0878991 0
-0.0272247 0.103407 0
-0.0396665 0.113444 0
-0.0528931 0.11999 0
-0.0666102 0.124058 0
-0.0806381 0.126018 0
-0.0948458 0.125882 0
-0.109113 0.123485 0
-0.12331 0.118607 0
-0.137285 0.111028 0
-0.150861 0.100565 0
-0.16383 0.0870978 0
-0.175956 0.070591 0
-0.186973 0.0511113 0
-0.196587 0.0288494 0
-0.204479 0.00413656 0
-0.210315 -0.0225401 0
-0.213744 -0.0507412 0
-0.214346 -0.0797471 0
-0.21158 -0.108563 0
-0.204804 -0.135864 0
-0.193326 -0.159886 0
-0.176548 -0.178347 0
-0.154188 -0.188455 0
-0.126628 -0.187161 0
-0.0953106 -0.171824 0
-0.0630815 -0.141497 0
-0.0341219 -0.098837 0
-0.01295 -0.0516841 0
-0.00242313 -0.0116212 0
-0.00150059 0.0299854 0
-0.00656655 0.0711354 0
-0.0150286 0.0979621 0
-0.0256352 0.115095 0
-0.0375388 0.126101 0
-0.0502143 0.133235 0
-0.0633538 0.137669 0
-0.0767731 0.139854 0
-0.0903481 0.139829 0
-0.103975 0.137432 0
-0.117548 0.13243 0
-0.130948 0.12458 0
-0.144036 0.113676 0
-0.156654 0.0995734 0
-0.168622 0.0822087 0
-0.179735 0.0616241 0
-0.189768 0.0379834 0
-0.198463 0.0115891 0
-0.20552 -0.0171003 0
-0.210636 -0.0476357 0
-0.213437 -0.0794498 0
-0.213361 -0.111702 0
-0.209654 -0.143208 0
-0.201401 -0.172272 0
-0.187642 -0.196498 0
-0.167617 -0.212687 0
-0.141158 -0.216947 0
-0.109228 -0.205286 0
-0.0744842 -0.175008 0
-0.0415569 -0.127213 0
-0.0162606 -0.0697759 0
-0.00313628 -0.0171806 0
-0.00130667 0.0327927 0
-0.00582599 0.0779134 0
-0.0135375 0.107358 0
-0.0233378 0.126107 0
-0.0344115 0.138067 0
-0.0462209 0.145754 0
-0.0584391 0.150508 0
-0.0708732 0.152869 0
-0.0834031 0.152919 0
-0.0959407 0.150507 0
-0.108407 0.145394 0
-0.120719 0.137327 0
-0.132785 0.126084 0
-0.144502 0.111501 0
-0.155757 0.0935029 0
-0.166426 0.0721126 0
-0.176369 0.0474713 0
-0.185421 0.0198472 0
-0.193368 -0.0103548 0
-0.199975 -0.0426577 0
-0.204929 -0.0766725 0
-0.207703 -0.111782 0
-0.207489 -0.147049 0
-0.203188 -0.180985 0
-0.193492 -0.21124 0
-0.177119 -0.234343 0
-0.153241 -0.245627 0
-0.122132 -0.239646 0
-0.0859848 -0.211538 0
-0.0495998 -0.159995 0
-0.020053 -0.0918373 0
-0.00398978 -0.0243067 0
-0.00107409 0.0351734 0
-0.00492325 0.0839011 0
-0.0116892 0.115847 0
-0.0204473 0.136176 0
-0.0304272 0.149052 0
-0.0410795 0.157231 0
-0.0520553 0.162225 0
-0.0631494 0.16468 0
-0.0742441 0.164732 0
-0.0852684 0.162255 0
-0.0961718 0.157016 0
-0.106911 0.148758 0
-0.117445 0.137253 0
-0.127732 0.122336 0
-0.137731 0.103923 0
-0.147406 0.0820361 0
-0.156718 0.056803 0
-0.165616 0.0284645 0
-0.174012 -0.00262964 0
-0.181763 -0.0360241 0
-0.188642 -0.071473 0
-0.194213 -0.108636 0
-0.197685 -0.146936 0
-0.197845 -0.185241 0
-0.193084 -0.221442 0
-0.1816 -0.251999 0
-0.161825 -0.271624 0
-0.133162 -0.273421 0
-0.0970284 -0.250043 0
-0.0580269 -0.196877 0
-0.0243078 -0.118221 0
-0.00499852 -0.033295 0
-0.000820105 0.0370676 0
-0.00392026 0.0889563 0
-0.0095993 0.123237 0
-0.0171287 0.145073 0
-0.0257936 0.158799 0
-0.0350363 0.167379 0
-0.044486 0.172502 0
-0.0539247 0.174935 0
-0.0632379 0.174885 0
-0.0723735 0.172263 0
-0.0813135 0.166852 0
-0.0900581 0.158405 0
-0.0986187 0.1467 0
-0.107017 0.131574 0
-0.115286 0.112954 0
-0.123476 0.0908698 0
-0.131649 0.0654552 0
-0.139878 0.0369389 0
-0.148212 0.00562574 0
-0.15663 -0.0281096 0
-0.165027 -0.064112 0
-0.173106 -0.102347 0
-0.180175 -0.142684 0
-0.184999 -0.184509 0
-0.185762 -0.226171 0
-0.180196 -0.26432 0
-0.165969 -0.293304 0
-0.141461 -0.304913 0
-0.107008 -0.289138 0
-0.0665649 -0.237226 0
-0.0289953 -0.149161 0
-0.00618333 -0.0444768 0
-0.000565688 0.0384534 0
-0.00289427 0.0929992 0
-0.0074153 0.129394 0
-0.0135941 0.152625 0
-0.0207781 0.167097 0
-0.028408 0.175954 0
-0.0360956 0.181065 0
-0.0436136 0.18333 0
-0.050855 0.183045 0
-0.0577913 0.180174 0
-0.0644416 0.174531 0
-0.0708538 0.165884 0
-0.0770955 0.154024 0
-0.0832515 0.138804 0
-0.0894258 0.120168 0
-0.095746 0.0981659 0
-0.102367 0.0729544 0
-0.10947 0.0447713 0
-0.117236 0.0138934 0
-0.125787 -0.0194083 0
-0.135166 -0.0550384 0
-0.145249 -0.0932581 0
-0.155518 -0.134436 0
-0.16484 -0.178611 0
-0.17133 -0.224815 0
-0.172371 -0.270202 0
-0.164916 -0.309104 0
-0.146237 -0.3323 0
-0.1153 -0.327141 0
-0.0749074 -0.280058 0
-0.0340859 -0.18472 0
-0.00757751 -0.0582377 0
-0.000334975 0.0393541 0
-0.00193667 0.0960288 0
-0.00531474 0.134264 0
-0.0101 0.158719 0
-0.0157022 0.173788 0
-0.0215705 0.182761 0
-0.0273101 0.187685 0
-0.0326947 0.189612 0
-0.0376329 0.188943 0
-0.0421278 0.185708 0
-0.046242 0.179762 0
-0.0500763 0.170899 0
-0.0537576 0.158931 0
-0.0574345 0.143729 0
-0.0612779 0.12526 0
-0.0654835 0.1036 0
-0.0702779 0.0789364 0
-0.0759217 0.0515357 0
-0.0827015 0.0216749 0
-0.0908882 -0.0104522 0
-0.100672 -0.044832 0
-0.1121 -0.0819535 0
-0.124892 -0.12268 0
-0.138149 -0.167787 0
-0.150101 -0.217197 0
-0.157975 -0.268906 0
-0.158152 -0.317678 0
-0.146801 -0.353757 0
-0.121289 -0.362135 0
-0.0827252 -0.32402 0
-0.0395605 -0.224744 0
-0.00923371 -0.0750489 0
-0.000155489 0.0398445 0
-0.00115383 0.0981384 0
-0.00350628 0.137885 0
-0.00694636 0.163324 0
-0.0109357 0.178775 0
-0.0149465 0.187653 0
-0.0185976 0.192184 0
-0.0216813 0.193581 0
-0.0241367 0.192367 0
-0.0260094 0.188651 0
-0.0274141 0.182337 0
-0.0285094 0.173253 0
-0.0294845 0.161234 0
-0.0305535 0.146173 0
-0.031952 0.128058 0
-0.0339373 0.106992 0
-0.0367911 0.0831922 0
-0.0408253 0.056958 0
-0.046385 0.0285922 0
-0.0538357 -0.00173218 0
-0.0634867 -0.0341169 0
-0.0755397 -0.0691879 0
-0.089974 -0.10822 0
-0.106238 -0.152726 0
-0.122884 -0.20366 0
-0.137255 -0.260196 0
-0.145418 -0.318047 0
-0.142574 -0.367582 0
-0.12436 -0.392036 0
-0.0896556 -0.367387 0
-0.0454075 -0.268791 0
-0.011227 -0.0955096 0
-6.00974e-05 0.0400601 0
-0.000672795 0.0995338 0
-0.00223651 0.140405 0
-0.0044799 0.166486 0
-0.00689376 0.182016 0
-0.00899416 0.190524 0
-0.0104467 0.194417 0
-0.0110912 0.195077 0
-0.0109193 0.193155 0
-0.0100344 0.18885 0
-0.00861298 0.182121 0
-0.0068764 0.172828 0
-0.00507843 0.160836 0
-0.00349963 0.146061 0
-0.00243965 0.128509 0
-0.00221374 0.108301 0
-0.00315014 0.0856737 0
-0.00558914 0.0609497 0
-0.00988597 0.034457 0
-0.0164162 0.00638382 0
-0.0255424 -0.0234557 0
-0.0375687 -0.0557699 0
-0.0526941 -0.0920781 0
-0.0707732 -0.134525 0
-0.0908807 -0.185109 0
-0.110806 -0.244451 0
-0.126681 -0.309754 0
-0.133051 -0.372349 0
-0.123852 -0.414682 0
-0.095254 -0.408042 0
-0.0515951 -0.316043 0
-0.0136483 -0.120385 0
-9.24677e-05 0.0402127 0
-0.000656026 0.100558 0
-0.00180698 0.142096 0
-0.0031046 0.168336 0
-0.00403517 0.18351 0
-0.00419332 0.191288 0
-0.00334198 0.194254 0
-0.00141162 0.193954 0
0.00152331 0.191171 0
0.00528159 0.186191 0
0.00961358 0.179027 0
0.014225 0.169574 0
0.018792 0.157725 0
0.0229707 0.143414 0
0.0264028 0.126663 0
0.0287237 0.1076 0
0.0295718 0.0864631 0
0.0285989 0.0635722 0
0.025478 0.0392522 0
0.0199014 0.0136955 0
0.0115442 -0.0132841 0
6.92945e-05 -0.0424402 0
-0.0148679 -0.0753451 0
-0.0334805 -0.114566 0
-0.0554832 -0.162957 0
-0.0794402 -0.222721 0
-0.102047 -0.293002 0
-0.117716 -0.367063 0
-0.118955 -0.427929 0
-0.0988908 -0.443457 0
-0.0579997 -0.365177 0
-0.0165817 -0.150615 0
-0.000319153 0.0406243 0
-0.00133193 0.101722 0
-0.00260622 0.143357 0
-0.00329872 0.169066 0
-0.00285982 0.183272 0
-0.00102361 0.189848 0
0.0022788 0.19154 0
0.00696132 0.190055 0
0.0128139 0.186283 0
0.0195538 0.180581 0
0.0268513 0.173008 0
0.0343428 0.163491 0
0.041643 0.151941 0
0.0483533 0.138309 0
0.054069 0.12262 0
0.0583899 0.105 0
0.0609343 0.08567 0
0.0613551 0.0649174 0
0.0593539 0.0430291 0
0.0546815 0.0201677 0
0.0471097 -0.00382729 0
0.0363975 -0.0297098 0
0.0222618 -0.0590026 0
0.0042849 -0.0943189 0
-0.017937 -0.13898 0
-0.0439781 -0.1967 0
-0.0716247 -0.268769 0
-0.0959112 -0.351341 0
-0.10855 -0.429773 0
-0.0995732 -0.470654 0
-0.064271 -0.414174 0
-0.0200554 -0.187252 0
-0.000853532 0.041797 0
-0.00304937 0.103758 0
-0.00515714 0.144703 0
-0.00562953 0.168885 0
-0.00388913 0.181274 0
8.00378e-05 0.18604 0
0.00605637 0.186069 0
0.0137136 0.183186 0
0.0226685 0.178344 0
0.0325176 0.171931 0
0.042847 0.164031 0
0.0532326 0.15459 0
0.0632425 0.143531 0
0.072442 0.130809 0
0.0804006 0.116446 0
0.0867038 0.100551 0
0.0909699 0.0833094 0
0.0928677 0.0649593 0
0.0921327 0.0457235 0
0.0885695 0.0257088 0
0.0820288 0.00474419 0
0.0723345 -0.0178748 0
0.0592304 -0.0435978 0
0.0423322 -0.0748486 0
0.0211374 -0.115033 0
-0.00491085 -0.168557 0
-0.0353288 -0.238847 0
-0.0666841 -0.325621 0
-0.0909923 -0.418546 0
-0.0956743 -0.486175 0
-0.0696032 -0.460026 0
-0.0239557 -0.231263 0
-0.00189872 0.0445492 0
-0.00635919 0.107662 0
-0.0101581 0.146706 0
-0.0107234 0.16792 0
-0.00758255 0.177358 0
-0.00117239 0.179577 0
0.00783881 0.177544 0
0.0187961 0.173096 0
0.031108 0.167167 0
0.0442429 0.160124 0
0.057712 0.152039 0
0.0710487 0.142859 0
0.0837978 0.132503 0
0.0955144 0.120921 0
0.105769 0.108121 0
0.114157 0.0941833 0
0.12032 0.0792476 0
0.123957 0.0634864 0
0.124841 0.0470477 0
0.122819 0.0299694 0
0.117791 0.0120522 0
0.109639 -0.0073367 0
0.098122 -0.0295143 0
0.0828308 -0.0567428 0
0.0631598 -0.0922733 0
0.0382689 -0.140378 0
0.00740015 -0.20574 0
-0.0286103 -0.291363 0
-0.0638769 -0.39323 0
-0.0845571 -0.48613 0
-0.0723686 -0.498331 0
-0.0278776 -0.283096 0
-0.00381236 0.0502603 0
-0.0120904 0.11469 0
-0.0184145 0.149801 0
-0.0190341 0.166009 0
-0.0139878 0.171081 0
-0.00449621 0.169952 0
0.00815507 0.165507 0
0.0229121 0.159419 0
0.0389598 0.152485 0
0.0556562 0.144975 0
0.0724658 0.13691 0
0.0889101 0.128208 0
0.104542 0.118773 0
0.118938 0.108539 0
0.131697 0.0974906 0
0.142452 0.08567 0
0.150885 0.0731649 0
0.156738 0.0600794 0
0.159822 0.046487 0
0.160014 0.0323594 0
0.157236 0.0174682 0
0.151394 0.00124138 0
0.142249 -0.0174306 0
0.129347 -0.0406325 0
0.11194 -0.0713066 0
0.08888 -0.113393 0
0.0587105 -0.171686 0
0.0204354 -0.251131 0
-0.0238149 -0.353944 0
-0.0620919 -0.466458 0
-0.0695297 -0.522754 0
-0.0308599 -0.341834 0
-0.00716082 0.0612335 0
-0.0212427 0.126076 0
-0.0302964 0.153792 0
-0.0299374 0.162279 0
-0.0216063 0.161434 0
-0.00775656 0.156257 0
0.00957503 0.149219 0
0.0289337 0.141592 0
0.0493247 0.133874 0
0.0700547 0.12616 0
0.0905934 0.118377 0
0.110495 0.110395 0
0.129358 0.102091 0
0.146811 0.093373 0
0.162511 0.0841984 0
0.176148 0.0745691 0
0.18746 0.0645206 0
0.196235 0.0540957 0
0.202317 0.0433052 0
0.205595 0.0320716 0
0.205977 0.0201522 0
0.203341 0.00703481 0
0.197468 -0.00820632 0
0.187848 -0.0273338 0
0.173527 -0.0528785 0
0.15301 -0.0882441 0
0.124195 -0.13785 0
0.0847366 -0.207233 0
0.0337123 -0.302568 0
-0.022112 -0.423733 0
-0.055678 -0.524475 0
-0.0308834 -0.403577 0
-0.0125518 0.0809461 0
-0.033947 0.141841 0
-0.0434819 0.156617 0
-0.0386783 0.154292 0
-0.0239039 0.146316 0
-0.00323687 0.136859 0
0.0205811 0.127467 0
0.0458583 0.118707 0
0.0715917 0.110634 0
0.0971513 0.10311 0
0.122091 0.0959475 0
0.146055 0.0889591 0
0.168729 0.0819894 0
0.189827 0.0749238 0
0.209083 0.0676913 0
0.226263 0.0602591 0
0.241162 0.0526196 0
0.253614 0.0447695 0
0.263486 0.036678 0
0.270663 0.028244 0
0.275024 0.0192367 0
0.276395 0.00921501 0
0.274478 -0.00259613 0
0.268684 -0.0175301 0
0.257889 -0.0375666 0
0.240239 -0.0653889 0
0.213027 -0.104678 0
0.172785 -0.160706 0
0.116187 -0.241473 0
0.0441516 -0.356967 0
-0.0214124 -0.492111 0
-0.023844 -0.458305 0
-0.0191335 0.112631 0