# vtk DataFile Version 2.0
Lid-driven cavity
ASCII
DATASET STRUCTURED_POINTS
DIMENSIONS 32 32 1
ORIGIN 0.015625 0.015625 0
SPACING 0.03125 0.03125 1
POINT_DATA 1024
SCALARS pressure double 1
LOOKUP_TABLE default
56.2887
56.051
55.6201
55.1297
54.6621
54.2597
53.9442
53.7313
53.6387
53.6884
53.9049
54.3115
54.9253
55.7523
56.782
57.9838
59.3051
60.6731
61.9925
63.155
64.0532
64.5968
64.7294
64.4415
63.7766
62.8279
61.7239
60.6112
59.6349
58.9197
58.5532
58.5433
56.5263
56.2779
55.9164
55.52
55.1399
54.8065
54.5384
54.3515
54.2636
54.2959
54.4714
54.812
55.3344
56.0456
56.9382
57.9864
59.1442
60.3487
61.5134
62.5402
63.3313
63.8052
63.9125
63.6475
63.0539
62.2193
61.2617
60.3063
59.4733
58.8597
58.5342
58.5332
56.9737
56.6177
56.2427
55.8796
55.5464
55.2529
55.0075
54.821
54.7098
54.695
54.8009
55.052
55.4689
56.064
56.8364
57.7677
58.8185
59.9313
61.0229
61.9962
62.753
63.2099
63.3149
63.0607
62.4901
61.6908
60.779
59.8771
59.0916
58.5076
58.1852
58.1718
57.4806
56.9696
56.5342
56.1626
55.8394
55.5525
55.2965
55.076
54.905
54.8058
54.8065
54.9372
55.2263
55.695
56.3522
57.1887
58.173
59.2486
60.3328
61.3248
62.1188
62.6209
62.7684
62.545
61.9885
61.1868
60.2597
59.3341
58.5199
57.897
57.5231
57.4432
57.9039
57.2198
56.7006
56.2919
55.9461
55.6289
55.3222
55.0242
54.7476
54.5172
54.3671
54.3359
54.4628
54.7811
55.3119
56.058
56.9978
58.0753
59.2083
60.29
61.2018
61.8323
62.0984
61.9648
61.456
60.6546
59.6851
58.6852
57.7775
57.0515
56.5678
56.3712
58.1038
57.245
56.6321
56.166
55.7671
55.3806
54.9771
54.55
54.1121
53.6926
53.3333
53.0841
52.9974
53.1214
53.4928
54.1293
55.0234
56.1243
57.3534
58.5982
59.724
60.5946
61.0955
61.1585
60.7805
60.0281
59.0251
57.9243
56.8718
55.9816
55.3303
54.9723
57.9408
56.915
56.2056
55.6657
55.1836
54.686
54.1342
53.5182
52.8528
52.1729
51.5299
50.9867
50.6116
50.471
50.6208
51.0981
51.9137
53.0351
54.3938
55.8748
57.3267
58.5814
59.4805
59.9048
59.8027
59.2054
58.2245
57.0266
55.7927
54.6798
53.8017
53.2388
57.2757
56.0969
55.2912
54.6618
54.0654
53.4115
52.6538
51.7806
50.8095
49.7821
48.7606
47.8226
47.0549
46.5456
46.3748
46.6045
47.2698
48.3726
49.8699
51.6508
53.5496
55.3619
56.872
57.8888
58.2837
58.0237
57.1849
55.9388
54.5105
53.124
51.9586
51.1381
55.975
54.6622
53.7612
53.0252
52.2805
51.421
50.3935
49.1854
47.8171
46.3372
44.8192
43.3569
42.0581
41.037
40.4036
40.2522
40.6493
41.6457
43.2508
45.3702
47.8304
50.3907
52.7681
54.6765
55.8775
56.2329
55.7451
54.5675
52.9711
51.2726
49.7538
48.6142
53.9189
52.495
51.4994
50.6375
49.7072
48.5881
47.2207
45.5906
43.7205
41.6653
39.5096
37.3642
35.3608
33.6443
32.3614
31.6475
31.6095
32.3521
33.9789
36.4293
39.536
43.0287
46.553
49.7097
52.1146
53.474
53.6612
52.7664
51.0911
49.068
47.1297
45.5959
51.0112
49.5025
48.4123
47.4029
46.2468
44.8106
43.028
40.8819
38.3952
35.6277
32.674
29.6626
26.7511
24.1199
21.9601
20.4583
19.7766
20.054
21.5471
24.2541
28.0342
32.6032
37.5427
42.3316
46.4097
49.2732
50.5929
50.3235
48.753
46.4386
44.0206
42.003
47.1887
45.6247
44.4397
43.2602
41.8374
40.0258
37.7518
34.9936
31.7722
28.1495
24.2288
20.1555
16.1152
12.3273
9.03426
6.48348
4.90399
4.4788
5.60429
8.41009
12.804
18.5131
25.0755
31.857
38.106
43.0599
46.1037
46.9539
45.8004
43.3017
40.3613
37.7575
42.4311
40.8432
39.5641
38.1934
36.4657
34.2248
31.389
27.9296
23.8626
19.2495
14.1998
8.87488
3.48819
-1.69868
-6.38727
-10.2616
-13.0165
-14.3949
-13.9318
-11.2689
-6.42571
0.368568
8.64541
17.6881
26.5642
34.224
39.687
42.3062
42.039
39.5697
36.1004
32.7991
36.7654
35.1868
33.8169
32.2393
30.1769
27.4645
24.0114
19.7799
14.7786
9.06504
2.75233
-3.98438
-10.9043
-17.7033
-24.0242
-29.4771
-33.6721
-36.2627
-36.7721
-34.5582
-29.5369
-21.8557
-11.9403
-0.53435
11.2932
22.2143
30.8277
35.9909
37.2483
35.1608
31.2158
27.1032
30.2687
28.7326
27.2805
25.4902
23.0782
19.8723
15.7725
10.7301
4.74371
-2.13593
-9.79516
-18.0476
-26.6276
-35.1899
-43.3189
-50.5502
-56.4037
-60.4299
-62.1869
-60.7598
-55.9174
-47.6921
-36.411
-22.7698
-7.89174
6.67501
19.1015
27.6401
31.2105
30.0191
25.7394
20.7077
23.0634
21.6024
20.0838
18.09
15.3363
11.6448
6.906
1.05922
-5.90962
-13.9588
-22.9771
-32.77
-43.0501
-53.4346
-63.4538
-72.5723
-80.2245
-85.8624
-89.0138
-88.6976
-84.4335
-76.1196
-63.937
-48.4484
-30.7188
-12.4029
4.30528
16.999
23.7652
24.1482
19.7893
13.7466
15.3086
13.9526
12.3927
10.225
7.16715
3.03668
-2.28579
-8.87453
-16.7578
-25.9054
-36.2108
-47.4742
-59.3902
-71.5433
-83.4159
-94.4101
-103.885
-111.206
-115.812
-116.829
-113.512
-105.612
-93.1306
-76.4208
-56.3605
-34.5494
-13.4049
4.04275
14.8894
17.6629
13.6154
6.49639
7.18562
5.95986
4.39483
2.10749
-1.1802
-5.65646
-11.4524
-18.6578
-27.3169
-37.4126
-48.8452
-61.4122
-74.7933
-88.5455
-102.111
-114.838
-126.026
-134.967
-141.016
-143.435
-141.329
-134.305
-122.174
-105.025
-83.4305
-58.7468
-33.4007
-10.9004
4.79926
10.8627
7.66114
-0.560619
-1.11928
-2.19699
-3.71915
-6.04276
-9.44361
-14.1204
-20.2208
-27.8533
-37.0808
-47.901
-60.2222
-73.8407
-88.4243
-103.507
-118.497
-132.703
-145.374
-155.754
-163.136
-166.875
-166.085
-160.272
-149.068
-132.286
-110.105
-83.462
-54.5322
-27.0482
-5.93644
4.32994
2.65103
-6.6456
-9.43475
-10.3574
-11.7762
-14.0196
-17.369
-22.045
-28.2214
-36.032
-45.5618
-56.8248
-69.7376
-84.0959
-99.5574
-115.636
-131.714
-147.067
-160.912
-172.461
-180.98
-185.834
-186.299
-181.841
-171.96
-156.215
-134.367
-106.8
-75.1749
-43.1163
-16.2916
-0.949698
-0.286405
-10.5471
-17.6245
-18.3997
-19.6408
-21.649
-24.7289
-29.1443
-35.1121
-42.8021
-52.3262
-63.7154
-76.8935
-91.6544
-107.646
-124.366
-141.173
-157.319
-171.997
-184.404
-193.797
-199.539
-201.063
-197.884
-189.461
-175.149
-154.325
-126.757
-93.3806
-57.3484
-24.7078
-3.44731
0.554364
-10.417
-25.6082
-26.262
-27.2334
-28.8039
-31.3348
-35.1695
-40.5946
-47.8306
-57.0216
-68.2146
-81.3361
-96.1737
-112.365
-129.393
-146.598
-163.214
-178.417
-191.391
-201.395
-207.803
-210.124
-207.981
-200.869
-188.028
-168.523
-141.523
-107.112
-67.6333
-29.0718
-0.946987
7.68615
-3.4751
-33.3842
-33.9649
-34.5458
-35.4127
-37.0424
-39.9153
-44.4242
-50.8567
-59.3952
-70.096
-82.8871
-97.5468
-113.691
-130.782
-148.137
-164.975
-180.458
-193.765
-204.156
-211.016
-213.87
-212.411
-206.219
-194.519
-176.142
-149.738
-114.497
-71.6879
-26.7628
9.57745
24.7103
14.3914
-41.0641
-41.6422
-41.6572
-41.4609
-41.747
-43.2178
-46.4157
-51.7244
-59.3527
-69.3575
-81.6469
-95.9716
-111.92
-128.925
-146.283
-163.193
-178.807
-192.298
-202.922
-210.066
-213.259
-212.13
-206.237
-194.942
-177.024
-150.601
-114.015
-67.2534
-14.7647
32.0291
56.6183
49.1296
-48.9363
-49.5914
-48.7537
-46.9867
-45.3707
-44.9461
-46.4519
-50.3487
-56.8662
-66.0403
-77.738
-91.6646
-107.366
-124.241
-141.557
-158.494
-174.194
-187.819
-198.615
-205.954
-209.34
-208.346
-202.342
-190.516
-171.587
-143.783
-104.532
-52.2222
10.1825
71.1567
110.055
109.105
-57.6092
-58.3767
-56.1646
-52.0755
-47.8417
-44.9676
-44.4197
-46.6902
-51.9938
-60.3079
-71.4288
-84.9945
-100.495
-117.284
-134.599
-151.602
-167.417
-181.196
-192.16
-199.645
-203.099
-202.046
-195.607
-182.634
-161.526
-129.967
-85.1898
-24.6309
51.4499
132.385
193.45
205.737
-68.3522
-69.0413
-64.4301
-56.8555
-49.085
-43.1731
-40.2741
-40.8177
-44.9279
-52.4691
-63.1303
-76.4601
-91.8793
-108.692
-126.104
-143.255
-159.255
-173.235
-184.385
-191.981
-195.385
-193.997
-186.834
-172.094
-147.648
-110.432
-56.5999
17.4568
112.449
221.448
316.879
354.184
-83.9335
-83.5408
-74.3959
-61.4648
-48.9852
-39.4714
-34.0447
-32.9116
-35.9868
-42.9525
-53.3539
-66.6318
-82.1305
-99.1029
-116.723
-134.109
-150.357
-164.575
-175.911
-183.568
-186.781
-184.76
-176.507
-159.333
-130.347
-85.4828
-19.4427
73.3594
196.159
343.684
491.328
574.076
-110.723
-105.453
-87.1312
-65.7921
-47.1828
-33.645
-25.7249
-23.159
-25.5046
-32.1904
-42.589
-56.026
-71.77
-89.0269
-106.943
-124.621
-141.142
-155.593
-167.075
-174.705
-177.575
-174.665
-164.711
-144.437
-109.74
-55.3479
25.8451
142.143
300.954
503.034
726.595
890.233
-163.933
-140.056
-102.501
-68.2178
-42.2557
-24.7224
-14.7488
-11.3253
-13.475
-20.3197
-31.0538
-44.8981
-61.0608
-78.7147
-96.9904
-114.984
-131.769
-146.413
-157.973
-165.476
-167.852
-163.815
-151.673
-127.605
-86.342
-21.3091
76.6296
219.272
420.587
693.719
1033.04
1332.1
-278.563
-186.732
-112.093
-61.1098
-28.434
-8.81014
1.27006
4.03194
0.967195
-6.82653
-18.4492
-33.0825
-49.9226
-68.1443
-86.8885
-105.262
-122.346
-137.198
-148.84
-156.215
-158.097
-152.923
-138.526
-110.492
-63.0276
11.5874
124.316
290.713
533.807
890.725
1416.2
2048.19
-563.505
-201.208
-73.1162
-19.3413
7.26409
20.7344
25.9341
24.9857
19.0905
9.10697
-4.23457
-20.2341
-38.1731
-57.2907
-76.7778
-95.7796
-113.402
-128.713
-140.72
-148.322
-150.198
-144.598
-128.937
-98.8375
-48.3843
30.6414
150.053
327.69
594.021
1013.98
1763.22
3301.29
VECTORS velocity double
8.33441e-05 -8.33441e-05 0
0.000170299 -3.61039e-06 0
3.65407e-05 0.000137368 0
-0.000367392 0.000266564 0
-0.000999942 0.000365986 0
-0.00180466 0.000438731 0
-0.00273573 0.000492337 0
-0.00376011 0.00053205 0
-0.00485133 0.000559169 0
-0.00598213 0.000571631 0
-0.00711907 0.000565303 0
-0.00821967 0.000535303 0
-0.0092321 0.000477126 0
-0.0100968 0.000387598 0
-0.0107501 0.000265703 0
-0.0111291 0.000113313 0
-0.0111781 -6.43385e-05 0
-0.0108551 -0.000258662 0
-0.0101409 -0.00045556 0
-0.00904817 -0.000637164 0
-0.00762731 -0.000783699 0
-0.0059675 -0.000876112 0
-0.00419205 -0.000899334 0
-0.00244705 -0.000845666 0
-0.000883889 -0.000717498 0
0.00036211 -0.000528501 0
0.00119351 -0.000302901 0
0.00156768 -7.12683e-05 0
0.00150777 0.000131182 0
0.0011111 0.000265487 0
0.000561059 0.000284553 0
0.000138253 0.000138253 0
6.88676e-08 -0.000166757 0
-0.000248227 0.000241144 0
-0.00105565 0.000833796 0
-0.00245852 0.00137694 0
-0.00437587 0.00180551 0
-0.00669745 0.0021255 0
-0.00932094 0.00236012 0
-0.012158 0.00252574 0
-0.0151265 0.00262513 0
-0.0181392 0.00264922 0
-0.0210965 0.00258191 0
-0.0238824 0.00240518 0
-0.0263663 0.00210366 0
-0.0284088 0.00166827 0
-0.0298698 0.00109932 0
-0.03062 0.000408947 0
-0.0305537 -0.000377371 0
-0.0296026 -0.00121973 0
-0.0277508 -0.00206046 0
-0.0250468 -0.00282901 0
-0.021611 -0.00344852 0
-0.0176368 -0.00384527 0
-0.0133823 -0.00396019 0
-0.00915084 -0.00376125 0
-0.00526168 -0.00325423 0
-0.00201062 -0.00248884 0
0.000373294 -0.00155788 0
0.00177052 -0.000587676 0
0.0022024 0.00027562 0
0.00184721 0.000872907 0
0.00104366 0.00103072 0
0.000291027 0.000567532 0
-0.000181201 1.43749e-05 0
-0.00100617 0.00113328 0
-0.00274615 0.00248906 0
-0.00532654 0.00370494 0
-0.00860342 0.00467175 0
-0.0124219 0.00539928 0
-0.0166387 0.00592669 0
-0.0211223 0.00627987 0
-0.0257421 0.00645928 0
-0.0303581 0.00644376 0
-0.0348138 0.0062004 0
-0.0389364 0.00569511 0
-0.0425404 0.00490177 0
-0.0454373 0.00380954 0
-0.0474468 0.00242849 0
-0.0484104 0.000793646 0
-0.0482064 -0.00103243 0
-0.0467646 -0.00295759 0
-0.0440795 -0.00485948 0
-0.0402217 -0.00659178 0
-0.0353468 -0.00799643 0
-0.0296974 -0.0089209 0
-0.0235968 -0.00923977 0
-0.0174308 -0.00887904 0
-0.0116172 -0.00783922 0
-0.00656016 -0.00621197 0
-0.00259502 -0.0041838 0
6.9799e-05 -0.0020238 0
0.00140487 -5.52101e-05 0
0.00159168 0.00137212 0
0.00102441 0.00190231 0
0.00030721 0.00116577 0
-0.000400749 0.000596325 0
-0.00191518 0.00289073 0
-0.00473282 0.00528923 0
-0.00860571 0.00735805 0
-0.0132973 0.00898708 0
-0.0186016 0.0102067 0
-0.0243401 0.0110746 0
-0.030347 0.0116225 0
-0.0364542 0.0118437 0
-0.0424807 0.0117018 0
-0.0482289 0.0111463 0
-0.0534868 0.0101296 0
-0.0580357 0.00862016 0
-0.0616605 0.00661287 0
-0.0641625 0.00413663 0
-0.0653725 0.00125909 0
-0.0651638 -0.00191049 0
-0.0634641 -0.0052211 0
-0.0602648 -0.00848039 0
-0.055634 -0.0114594 0
-0.0497282 -0.0139095 0
-0.0427993 -0.0155861 0
-0.0351942 -0.0162804 0
-0.0273427 -0.0158559 0
-0.019731 -0.0142878 0
-0.0128558 -0.0116957 0
-0.00716123 -0.00835977 0
-0.00296434 -0.00470954 0
-0.000384834 -0.00128404 0
0.000704844 0.00132446 0
0.000698708 0.00252337 0
0.00024382 0.0017168 0
-0.000635122 0.0016322 0
-0.00288575 0.00561991 0
-0.00684309 0.00933505 0
-0.012054 0.0123961 0
-0.018171 0.0147576 0
-0.0249315 0.016501 0
-0.0321242 0.0177115 0
-0.0395574 0.0184257 0
-0.0470371 0.0186273 0
-0.0543554 0.0182631 0
-0.0612893 0.017267 0
-0.0676046 0.0155822 0
-0.0730654 0.0131773 0
-0.077444 0.0100592 0
-0.0805329 0.00628112 0
-0.0821551 0.00194682 0
-0.0821752 -0.00278676 0
-0.0805053 -0.00771448 0
-0.077113 -0.0125786 0
-0.0720373 -0.0170678 0
-0.0654064 -0.0208379 0
-0.057452 -0.023541 0
-0.0485172 -0.0248653 0
-0.0390543 -0.0245853 0
-0.0296053 -0.0226191 0
-0.0207607 -0.0190841 0
-0.0130907 -0.0143358 0
-0.00705414 -0.00896698 0
-0.00290175 -0.0037585 0
-0.00060162 0.000409107 0
0.000195852 0.00264739 0
0.000141451 0.00210207 0
-0.000872274 0.00313959 0
-0.00386469 0.00935555 0
-0.00896136 0.0146534 0
-0.0154942 0.0188215 0
-0.0229997 0.0219546 0
-0.0311587 0.0242234 0
-0.0397316 0.0257546 0
-0.048509 0.0265932 0
-0.057282 0.0267125 0
-0.0658296 0.0260437 0
-0.0739168 0.0245075 0
-0.0813008 0.022041 0
-0.0877382 0.0186166 0
-0.0929946 0.014255 0
-0.0968536 0.00903322 0
-0.099125 0.00308841 0
-0.0996524 -0.00338086 0
-0.098317 -0.0101258 0
-0.0950433 -0.0168333 0
-0.089819 -0.023113 0
-0.0827211 -0.0285216 0
-0.0739372 -0.0325955 0
-0.0637847 -0.0348981 0
-0.0527192 -0.0350811 0
-0.0413283 -0.0329632 0
-0.0302989 -0.028614 0
-0.0203484 -0.0224265 0
-0.0121177 -0.0151436 0
-0.00604164 -0.0078103 0
-0.0022332 -0.00164766 0
-0.000424241 0.00209773 0
1.91845e-05 0.0022627 0
-0.0011024 0.00511426 0
-0.00480919 0.0140801 0
-0.010994 0.0212104 0
-0.0187799 0.0265833 0
-0.0275931 0.0305116 0
-0.0370633 0.0332956 0
-0.046929 0.035121 0
-0.0569712 0.0360465 0
-0.0669766 0.0360377 0
-0.0767219 0.0350113 0
-0.0859714 0.0328767 0
-0.0944813 0.0295657 0
-0.102006 0.0250538 0
-0.108304 0.0193725 0
-0.113146 0.0126168 0
-0.116319 0.00494901 0
-0.117632 -0.00340052 0
-0.116925 -0.012149 0
-0.114067 -0.0209423 0
-0.108979 -0.0293163 0
-0.101669 -0.0367263 0
-0.0922603 -0.0425828 0
-0.0810219 -0.0463016 0
-0.0683892 -0.0473758 0
-0.054976 -0.0454726 0
-0.0415583 -0.0405517 0
-0.0290145 -0.0329831 0
-0.0182087 -0.0236235 0
-0.00982311 -0.0137921 0
-0.00418378 -0.00511368 0
-0.00115106 0.000722073 0
-0.000119008 0.00216288 0
-0.00131525 0.00753191 0
-0.00567781 0.0197318 0
-0.0128547 0.0289204 0
-0.0217786 0.0355831 0
-0.0317786 0.040325 0
-0.0424417 0.0436155 0
-0.0534918 0.0457169 0
-0.0647082 0.0467093 0
-0.0758813 0.0465534 0
-0.086794 0.0451535 0
-0.097217 0.0424069 0
-0.10691 0.0382387 0
-0.115627 0.0326224 0
-0.123118 0.0255928 0
-0.129133 0.0172536 0
-0.133429 0.00778134 0
-0.135776 -0.00257304 0
-0.135962 -0.0134976 0
-0.133799 -0.0246151 0
-0.129135 -0.0353955 0
-0.121897 -0.0451953 0
-0.112125 -0.0532934 0
-0.100014 -0.0589407 0
-0.085947 -0.0614363 0
-0.0705318 -0.0602404 0
-0.0546084 -0.055125 0
-0.0392121 -0.0463499 0
-0.0254605 -0.0348141 0
-0.0143523 -0.0220952 0
-0.00651538 -0.0102867 0
-0.00200807 -0.00164489 0
-0.000277076 0.0017668 0
-0.00149987 0.010347 0
-0.00642879 0.0262081 0
-0.0144602 0.0376524 0
-0.0243653 0.0456802 0
-0.0353928 0.0512554 0
-0.0470969 0.0550523 0
-0.0591934 0.0574268 0
-0.0714661 0.0584884 0
-0.0837151 0.0581965 0
-0.0957353 0.0564433 0
-0.107308 0.0531127 0
-0.118199 0.0481179 0
-0.128163 0.0414231 0
-0.136937 0.0330568 0
-0.144252 0.02312 0
-0.149833 0.0117919 0
-0.153404 -0.000665764 0
-0.154709 -0.0139143 0
-0.153501 -0.0275689 0
-0.149559 -0.0410481 0
-0.14272 -0.0536192 0
-0.132929 -0.0644328 0
-0.120275 -0.0725667 0
-0.105052 -0.0770996 0
-0.0878152 -0.0772293 0
-0.0694211 -0.0724536 0
-0.0510318 -0.062807 0
-0.0340258 -0.0491146 0
-0.0197801 -0.0331487 0
-0.00933162 -0.0175187 0
-0.00304328 -0.00520857 0
-0.000466761 0.00102296 0
-0.00164518 0.0134921 0
-0.00702127 0.0333681 0
-0.0157314 0.047234 0
-0.0264221 0.0566944 0
-0.0382805 0.063127 0
-0.0508366 0.0674408 0
-0.0638033 0.0701014 0
-0.0769723 0.0712553 0
-0.0901575 0.0708639 0
-0.103169 0.0688073 0
-0.115801 0.0649532 0
-0.127829 0.0591968 0
-0.139006 0.0514845 0
-0.149064 0.0418282 0
-0.157715 0.0303151 0
-0.164655 0.0171172 0
-0.169573 0.00249858 0
-0.172167 -0.0131807 0
-0.172144 -0.0295327 0
-0.169222 -0.0459487 0
-0.163153 -0.0616261 0
-0.153768 -0.0756025 0
-0.14103 -0.0867888 0
-0.125101 -0.0940296 0
-0.10642 -0.0962165 0
-0.0857969 -0.0924841 0
-0.0644571 -0.0825055 0
-0.0440134 -0.0668658 0
-0.0262594 -0.0473973 0
-0.0127562 -0.0272218 0
-0.0043189 -0.0102312 0
-0.000703009 -0.000146811 0
-0.00174093 0.0168782 0
-0.00741808 0.0410352 0
-0.0165968 0.0574557 0
-0.0278426 0.0684094 0
-0.0402994 0.0757272 0
-0.0534798 0.0805772 0
-0.0670959 0.0835479 0
-0.0809487 0.0848307 0
-0.0948674 0.0843924 0
-0.108679 0.0821013 0
-0.122193 0.0778052 0
-0.135196 0.0713759 0
-0.147448 0.0627346 0
-0.158679 0.0518674 0
-0.168591 0.0388392 0
-0.176864 0.0238058 0
-0.183161 0.0070254 0
-0.187143 -0.0111315 0
-0.188488 -0.0302597 0
-0.186871 -0.0497611 0
-0.181962 -0.068792 0
-0.173478 -0.0863053 0
-0.161233 -0.101069 0
-0.145212 -0.1117 0
-0.12568 -0.116758 0
-0.103308 -0.114937 0
-0.079299 -0.105402 0
-0.0554271 -0.0882853 0
-0.0339002 -0.0652587 0
-0.0169076 -0.0398561 0
-0.00590136 -0.0170404 0
-0.00100252 -0.00185234 0
-0.0017788 0.0203979 0
-0.00758915 0.049003 0
-0.0169984 0.0680759 0
-0.0285392 0.0805758 0
-0.0413296 0.088808 0
-0.054869 0.0942161 0
-0.0688681 0.097524 0
-0.0831364 0.0989757 0
-0.0975176 0.0985473 0
-0.111856 0.0960959 0
-0.125979 0.0914477 0
-0.13969 0.0844473 0
-0.15276 0.0749853 0
-0.16493 0.0630169 0
-0.175906 0.0485779 0
-0.185367 0.031801 0
-0.19297 0.0129303 0
-0.198357 -0.00766662 0
-0.20119 -0.0295468 0
-0.201118 -0.052163 0
-0.197751 -0.0746667 0
-0.190695 -0.09597 0
-0.179604 -0.114741 0
-0.164252 -0.129401 0
-0.144662 -0.138179 0
-0.121276 -0.139273 0
-0.0951526 -0.131199 0
-0.0681161 -0.113397 0
-0.0427291 -0.0870612 0
-0.0218757 -0.0558996 0
-0.00785326 -0.0260255 0
-0.00138225 -0.0042371 0
-0.00175354 0.0239303 0
-0.00751511 0.0570426 0
-0.016898 0.0788285 0
-0.0284518 0.0929178 0
-0.0412856 0.10209 0
-0.0548868 0.108074 0
-0.068962 0.11174 0
-0.0833262 0.113392 0
-0.0978356 0.113022 0
-0.112352 0.110476 0
-0.126723 0.105562 0
-0.140773 0.0980938 0
-0.154295 0.0879314 0
-0.167052 0.0749967 0
-0.178772 0.059294 0
-0.189154 0.0409285 0
-0.197872 0.0201234 0
-0.204578 -0.00276619 0
-0.208932 -0.0272603 0
-0.210574 -0.0528789 0
-0.209079 -0.0788135 0
-0.203965 -0.103993 0
-0.194725 -0.127049 0
-0.1809 -0.14627 0
-0.162214 -0.159587 0
-0.138783 -0.164682 0
-0.111388 -0.159309 0
-0.0817478 -0.141963 0
-0.052659 -0.112971 0
-0.0277033 -0.0757994 0
-0.0102273 -0.037624 0
-0.00185876 -0.00747812 0
-0.00166394 0.0273478 0
-0.00719063 0.0649134 0
-0.0162829 0.0894328 0
-0.0275572 0.105142 0
-0.0401288 0.115272 0
-0.0534734 0.121838 0
-0.0672887 0.125867 0
-0.0813905 0.127732 0
-0.0956451 0.127446 0
-0.109931 0.124854 0
-0.124119 0.119743 0
-0.138059 0.111903 0
-0.151577 0.101163 0
-0.164471 0.0874156 0
-0.176511 0.0706347 0
-0.187438 0.0508973 0
-0.196967 0.0284016 0
-0.204789 0.00348357 0
-0.210577 -0.0233681 0
-0.213986 -0.0517194 0
-0.2146 -0.0808552 0
-0.211874 -0.10979 0
-0.205159 -0.137206 0
-0.193755 -0.161343 0
-0.177043 -0.179912 0
-0.154728 -0.190103 0
-0.127172 -0.188839 0
-0.0958052 -0.173439 0
-0.0634722 -0.142917 0
-0.0343712 -0.0999102 0
-0.0130607 -0.0522998 0
-0.00244738 -0.0117843 0
-0.00151355 0.0305252 0
-0.00662695 0.072376 0
-0.0151708 0.0996063 0
-0.0258759 0.116947 0
-0.037878 0.12804 0
-0.0506404 0.135177 0
-0.0638467 0.139549 0
-0.0773084 0.141612 0
-0.0908985 0.14141 0
-0.104512 0.13879 0
-0.118044 0.133527 0
-0.131378 0.125392 0
-0.144379 0.114192 0
-0.156893 0.0997946 0
-0.168747 0.0821496 0
-0.179748 0.0613099 0
-0.189677 0.0374476 0
-0.198288 0.0108701 0
-0.205293 -0.0179622 0
-0.210394 -0.0486135 0
-0.21322 -0.0805218 0
-0.213209 -0.112861 0
-0.209599 -0.14446 0
-0.201463 -0.173629 0
-0.187827 -0.197973 0
-0.16791 -0.214274 0
-0.141524 -0.218611 0
-0.10961 -0.206947 0
-0.0748201 -0.176532 0
-0.0417902 -0.128426 0
-0.0163716 -0.0705133 0
-0.00316201 -0.0173936 0
-0.00131095 0.0333498 0
-0.00585319 0.0792071 0
-0.0136132 0.109079 0
-0.0234773 0.128044 0
-0.0346161 0.140084 0
-0.04648 0.147759 0
-0.0587338 0.152428 0
-0.0711798 0.154641 0
-0.0836951 0.154486 0
-0.0961911 0.151823 0
-0.108589 0.146424 0
-0.12081 0.138049 0
-0.132763 0.12649 0
-0.144353 0.111601 0
-0.155475 0.0933187 0
-0.166013 0.0716792 0
-0.175838 0.0468332 0
-0.184797 0.0190536 0
-0.192683 -0.0112546 0
-0.199273 -0.0436299 0
-0.204258 -0.0776935 0
-0.207112 -0.112847 0
-0.207021 -0.148175 0
-0.202873 -0.182197 0
-0.193345 -0.212569 0
-0.177136 -0.235805 0
-0.153393 -0.247209 0
-0.122369 -0.241286 0
-0.0862386 -0.213113 0
-0.0498001 -0.161313 0
-0.0201576 -0.0926869 0
-0.0040158 -0.0245714 0
-0.00106962 0.0357303 0
-0.0049164 0.0852155 0
-0.0116959 0.11761 0
-0.0204817 0.138163 0
-0.0304922 0.151115 0
-0.0411668 0.159267 0
-0.0521484 0.164155 0
-0.0632265 0.166438 0
-0.0742813 0.16626 0
-0.0852408 0.163506 0
-0.0960557 0.157955 0
-0.106685 0.149367 0
-0.117091 0.137531 0
-0.127237 0.122297 0
-0.137092 0.103599 0
-0.146625 0.0814705 0
-0.155809 0.056052 0
-0.164605 0.0275883 0
-0.172934 -0.00357332 0
-0.180666 -0.0369902 0
-0.187577 -0.0724356 0
-0.193234 -0.109595 0
-0.196842 -0.147912 0
-0.197175 -0.186275 0
-0.192613 -0.222581 0
-0.181334 -0.253281 0
-0.161748 -0.273061 0
-0.133231 -0.274976 0
-0.0971775 -0.251607 0
-0.0581781 -0.198257 0
-0.0243989 -0.119165 0
-0.00502342 -0.0336107 0
-0.000807357 0.0376073 0
-0.00388043 0.0902584 0
-0.00953796 0.125004 0
-0.0170585 0.147075 0
-0.0257197 0.160874 0
-0.0349539 0.169416 0
-0.044382 0.174416 0
-0.0537809 0.176655 0
-0.0630339 0.176351 0
-0.0720884 0.173429 0
-0.0809275 0.167686 0
-0.0895535 0.158892 0
-0.0979814 0.146841 0
-0.106237 0.13139 0
-0.114361 0.112484 0
-0.12241 0.0901672 0
-0.130457 0.0645864 0
-0.138582 0.0359751 0
-0.146848 0.00463508 0
-0.155243 -0.0290718 0
-0.163669 -0.0650166 0
-0.171831 -0.103195 0
-0.179033 -0.143503 0
-0.184034 -0.18535 0
-0.185007 -0.227094 0
-0.179669 -0.265385 0
-0.165666 -0.294545 0
-0.141353 -0.306322 0
-0.107037 -0.29063 0
-0.0666535 -0.238617 0
-0.0290657 -0.150172 0
-0.00620556 -0.0448396 0
-0.000545584 0.0389602 0
-0.00282415 0.0942571 0
-0.0072899 0.131129 0
-0.013424 0.154605 0
-0.0205712 0.169153 0
-0.0281635 0.177964 0
-0.035805 0.182937 0
-0.0432636 0.184991 0
-0.0504302 0.184434 0
-0.0572761 0.181246 0
-0.0638216 0.175254 0
-0.0701168 0.166245 0
-0.0762324 0.15403 0
-0.0822572 0.138481 0
-0.0883 0.11956 0
-0.0944945 0.0973344 0
-0.101003 0.0719742 0
-0.108013 0.0437234 0
-0.115717 0.0128562 0
-0.124245 -0.0203697 0
-0.133646 -0.0558917 0
-0.1438 -0.0940036 0
-0.154186 -0.135106 0
-0.163671 -0.179262 0
-0.170361 -0.225518 0
-0.17163 -0.271031 0
-0.164414 -0.310117 0
-0.14596 -0.333517 0
-0.115206 -0.328505 0
-0.0749249 -0.281407 0
-0.0341298 -0.185765 0
-0.00759555 -0.0586408 0
-0.000308753 0.0398146 0
-0.00184019 0.0972128 0
-0.00513166 0.13593 0
-0.00983819 0.160644 0
-0.0153719 0.175795 0
-0.0211756 0.184719 0
-0.0268476 0.189496 0
-0.0321569 0.1912 0
-0.0370107 0.190246 0
-0.0414121 0.186681 0
-0.0454252 0.180376 0
-0.0491528 0.171145 0
-0.0527248 0.158818 0
-0.0562932 0.143286 0
-0.0600321 0.124536 0
-0.0641413 0.102662 0
-0.0688517 0.0778655 0
-0.074429 0.0504198 0
-0.0811651 0.0205996 0
-0.089335 -0.0114153 0
-0.099135 -0.0456449 0
-0.110616 -0.0826155 0
-0.1235 -0.123224 0
-0.136888 -0.168271 0
-0.14901 -0.217697 0
-0.157088 -0.269506 0
-0.157495 -0.318453 0
-0.146379 -0.35475 0
-0.121078 -0.363326 0
-0.082669 -0.325277 0
-0.0395738 -0.225785 0
-0.0092462 -0.0754825 0
-0.000124542 0.0402479 0
-0.00103573 0.0992221 0
-0.00327365 0.13945 0
-0.00660338 0.16516 0
-0.0104945 0.180703 0
-0.0144157 0.189535 0
-0.0179797 0.193916 0
-0.0209752 0.195084 0
-0.0233403 0.19358 0
-0.0251211 0.18953 0
-0.0264338 0.182854 0
-0.027439 0.173401 0
-0.0283291 0.161025 0
-0.0293207 0.145639 0
-0.0306517 0.127252 0
-0.032581 0.105984 0
-0.035392 0.082065 0
-0.0393973 0.0558029 0
-0.0449426 0.0274978 0
-0.0523938 -0.00269238 0
-0.0620625 -0.0348991 0
-0.0741532 -0.0697896 0
-0.0886483 -0.108671 0
-0.105001 -0.153082 0
-0.121771 -0.203995 0
-0.136305 -0.260595 0
-0.144666 -0.318596 0
-0.142044 -0.368345 0
-0.124051 -0.393025 0
-0.0895294 -0.368509 0
-0.0453886 -0.269789 0
-0.0112328 -0.0959615 0
-2.58081e-05 0.0403982 0
-0.000538088 0.100495 0
-0.00196351 0.141841 0
-0.00406812 0.168204 0
-0.00635613 0.183838 0
-0.00834334 0.192308 0
-0.00969077 0.196054 0
-0.0102353 0.196486 0
-0.00996874 0.194277 0
-0.00899607 0.189641 0
-0.00749472 0.182554 0
-0.00568825 0.1729 0
-0.00383388 0.160561 0
-0.00221385 0.145474 0
-0.00112877 0.127663 0
-0.000893856 0.107267 0
-0.00183605 0.0845349 0
-0.00429286 0.0597952 0
-0.00861524 0.0333732 0
-0.0151737 0.00544192 0
-0.0243282 -0.0242103 0
-0.036383 -0.0563328 0
-0.0515404 -0.0924756 0
-0.0696647 -0.1348 0
-0.0898425 -0.18533 0
-0.109874 -0.244695 0
-0.1259 -0.310109 0
-0.132459 -0.372895 0
-0.123469 -0.415459 0
-0.0950673 -0.408998 0
-0.0515446 -0.316963 0
-0.0136468 -0.120841 0
-5.60638e-05 0.0404801 0
-0.000509612 0.101379 0
-0.00150322 0.143376 0
-0.00263736 0.169908 0
-0.00341662 0.185202 0
-0.00343906 0.192954 0
-0.00246442 0.195781 0
-0.000421143 0.195261 0
0.00261398 0.1922 0
0.00645687 0.186902 0
0.0108553 0.179393 0
0.0155128 0.169596 0
0.0201045 0.157419 0
0.0242853 0.142816 0
0.0276975 0.125825 0
0.0299785 0.10659 0
0.0307706 0.085362 0
0.0297316 0.0624638 0
0.0265424 0.0382161 0
0.0209037 0.0127962 0
0.0125006 -0.0140069 0
0.00100007 -0.0429808 0
-0.0139484 -0.0757216 0
-0.0325707 -0.114807 0
-0.0545938 -0.163121 0
-0.0785987 -0.222867 0
-0.101298 -0.293212 0
-0.117109 -0.367422 0
-0.11853 -0.4285 0
-0.0986577 -0.444231 0
-0.0579205 -0.36599 0
-0.0165723 -0.15106 0
-0.000281642 0.0408178 0
-0.00117838 0.102392 0
-0.00228139 0.14446 0
-0.00278978 0.170466 0
-0.00217595 0.184809 0
-0.00018032 0.191374 0
0.00326584 0.19294 0
0.00807395 0.19125 0
0.0140308 0.187219 0
0.0208515 0.181219 0
0.0282029 0.173326 0
0.0357194 0.163489 0
0.0430152 0.151638 0
0.0496922 0.137739 0
0.0553481 0.121834 0
0.0595868 0.104061 0
0.0620332 0.0846521 0
0.0623494 0.0638965 0
0.0602469 0.0420751 0
0.0554871 0.0193357 0
0.0478496 -0.00450581 0
0.0370966 -0.0302284 0
0.0229438 -0.0593727 0
0.00497161 -0.0945617 0
-0.0172354 -0.139137 0
-0.0432759 -0.196806 0
-0.0709585 -0.26889 0
-0.0953331 -0.351558 0
-0.108113 -0.430163 0
-0.0993102 -0.471244 0
-0.0641677 -0.414857 0
-0.0200382 -0.187671 0
-0.000815826 0.0419153 0
-0.0028933 0.104268 0
-0.00482152 0.145614 0
-0.00509364 0.170093 0
-0.00315627 0.182632 0
0.000995185 0.187404 0
0.00713458 0.187325 0
0.0149312 0.184261 0
0.0239969 0.179185 0
0.0339252 0.172504 0
0.044299 0.164316 0
0.0546927 0.154589 0
0.0646748 0.143261 0
0.0738125 0.130301 0
0.0816797 0.115748 0
0.0878682 0.0997197 0
0.0920051 0.0824104 0
0.0937699 0.0640573 0
0.0929094 0.0448774 0
0.0892388 0.0249638 0
0.082616 0.00412642 0
0.0728676 -0.0183593 0
0.0597368 -0.0439582 0
0.0428365 -0.0751037 0
0.0216565 -0.115208 0
-0.00436799 -0.16867 0
-0.0347771 -0.238934 0
-0.0661694 -0.325747 0
-0.0905727 -0.418791 0
-0.095399 -0.486592 0
-0.0694819 -0.460568 0
-0.0239312 -0.23164 0
-0.00186212 0.0445932 0
-0.00620663 0.108013 0
-0.0098246 0.147416 0
-0.0101791 0.168917 0
-0.00682223 0.178513 0
-0.000207965 0.180757 0
0.00898579 0.178638 0
0.0200974 0.174039 0
0.0325291 0.16791 0
0.0457451 0.160635 0
0.0592538 0.152303 0
0.0725875 0.142875 0
0.0852928 0.132287 0
0.0969281 0.120502 0
0.107069 0.107539 0
0.115322 0.0934876 0
0.121335 0.0784922 0
0.124821 0.0627249 0
0.125563 0.0463278 0
0.12342 0.0293274 0
0.118296 0.0115094 0
0.110077 -0.00777514 0
0.0985215 -0.0298558 0
0.083217 -0.0570013 0
0.0635512 -0.0924646 0
0.0386774 -0.140515 0
0.00783002 -0.205833 0
-0.0281804 -0.291446 0
-0.0634981 -0.393371 0
-0.0842866 -0.486397 0
-0.0722364 -0.498731 0
-0.0278468 -0.283418 0
-0.00377952 0.0502349 0
-0.0119513 0.114887 0
-0.0181022 0.150311 0
-0.0185082 0.166783 0
-0.0132323 0.172014 0
-0.00351654 0.170927 0
0.00933694 0.166422 0
0.0242637 0.160217 0
0.0404419 0.153122 0
0.0572249 0.145424 0
0.0740744 0.137156 0
0.090512 0.128251 0
0.106093 0.118625 0
0.120398 0.108224 0
0.133034 0.0970404 0
0.143643 0.0851246 0
0.151918 0.0725669 0
0.157612 0.0594709 0
0.160547 0.0459048 0
0.160609 0.0318316 0
0.157726 0.0170117 0
0.151806 0.000861012 0
0.14261 -0.0177403 0
0.129678 -0.0408804 0
0.112261 -0.0715026 0
0.0892024 -0.113544 0
0.0590412 -0.171795 0
0.0207738 -0.251206 0
-0.0234947 -0.354025 0
-0.0618428 -0.466607 0
-0.0693949 -0.523019 0
-0.0308245 -0.342089 0
-0.00713702 0.0611514 0
-0.0211344 0.12614 0
-0.0300354 0.15411 0
-0.0294712 0.162826 0
-0.0209064 0.16213 0
-0.00681962 0.157007 0
0.0107294 0.149939 0
0.0302714 0.142232 0
0.0508043 0.134396 0
0.0716298 0.126541 0
0.0922151 0.118604 0
0.112115 0.110466 0
0.13093 0.102013 0
0.148296 0.0931647 0
0.163876 0.0838835 0
0.177371 0.0741769 0
0.188529 0.0640825 0
0.197148 0.0536427 0
0.203082 0.0428644 0
0.206228 0.0316637 0
0.2065 0.0197899 0
0.20378 0.00672271 0
0.197843 -0.00846859 0
0.188176 -0.0275534 0
0.173824 -0.0530607 0
0.153288 -0.0883911 0
0.124462 -0.137961 0
0.0849975 -0.207308 0
0.0339625 -0.302619 0
-0.0219013 -0.4238 0
-0.0555508 -0.524624 0
-0.0308461 -0.40376 0
-0.012545 0.0808334 0
-0.0338945 0.141805 0
-0.0433153 0.156766 0
-0.0383337 0.154624 0
-0.0233403 0.146775 0
-0.00244067 0.137377 0
0.0215975 0.127982 0
0.0470648 0.119179 0
0.0729495 0.111032 0
0.098616 0.103414 0
0.123616 0.0961454 0
0.147593 0.0890475 0
0.170236 0.0819723 0
0.191265 0.0748118 0
0.210421 0.0675002 0
0.227477 0.0600085 0
0.24224 0.0523309 0
0.254551 0.0444637 0
0.264287 0.0363738 0
0.27134 0.0279557 0
0.275591 0.0189737 0
0.276869 0.00898129 0
0.274877 -0.00279799 0
0.269024 -0.0177043 0
0.258181 -0.0377151 0
0.240492 -0.0655111 0
0.213249 -0.104772 0
0.172984 -0.160768 0
0.116367 -0.241508 0
0.0443098 -0.356991 0
-0.0213044 -0.49217 0
-0.0238085 -0.458415 0