# vtk DataFile Version 2.0
Lid-driven cavity
ASCII
DATASET STRUCTURED_POINTS
DIMENSIONS 32 32 1
ORIGIN 0.015625 0.015625 0
SPACING 0.03125 0.03125 1
POINT_DATA 1024
SCALARS pressure double 1
LOOKUP_TABLE default
7.88191
7.83262
7.76895
7.71886
7.69645
7.70731
7.753
7.83375
7.94984
8.10195
8.29095
8.51749
8.78134
9.08076
9.41199
9.76876
10.1422
10.5209
10.8912
11.2373
11.5437
11.7962
11.9846
12.1037
12.1547
12.1452
12.0882
12.0008
11.9021
11.8118
11.7484
11.7265
7.93121
7.88048
7.83101
7.79719
7.78778
7.80707
7.8569
7.93815
8.05161
8.19819
8.37884
8.59414
8.84383
9.12628
9.43797
9.7731
10.1235
10.4789
10.8265
11.152
11.441
11.6805
11.8612
11.9788
12.0346
12.0362
11.9955
11.9279
11.8497
11.7773
11.725
11.7046
7.99638
7.92655
7.87563
7.84768
7.84538
7.87
7.92219
8.00257
8.11205
8.25185
8.42322
8.62715
8.86382
9.13217
9.42933
9.75019
10.0872
10.4307
10.7685
11.0861
11.3692
11.6048
11.7833
11.9002
11.9571
11.9612
11.9248
11.8628
11.7904
11.7218
11.6692
11.6419
8.04554
7.95146
7.89177
7.86321
7.86313
7.88958
7.94148
8.0188
8.12237
8.25368
8.41454
8.6066
8.8309
9.08731
9.37395
9.68665
10.0185
10.36
10.6987
11.0198
11.3079
11.5488
11.7318
11.8513
11.9084
11.9104
11.8701
11.8031
11.7249
11.6492
11.5873
11.5471
8.05494
7.93657
7.86543
7.83262
7.83111
7.85601
7.90462
7.97613
8.07128
8.19189
8.34044
8.51951
8.73125
8.9768
9.25559
9.56467
9.89807
10.2458
10.5952
10.9306
11.2349
11.4919
11.6884
11.8168
11.8767
11.8754
11.8263
11.7465
11.6532
11.5614
11.4828
11.4257
8.00561
7.86465
7.78158
7.74263
7.73699
7.75732
7.79948
7.86204
7.94569
8.05267
8.18624
8.35007
8.54768
8.78174
9.0533
9.36106
9.70047
10.0611
10.43
10.7905
11.1236
11.4098
11.6324
11.7802
11.8502
11.8482
11.7885
11.6903
11.5741
11.4579
11.3558
11.278
7.88115
7.71972
7.62513
7.57899
7.56709
7.58
7.6124
7.66239
7.7307
7.82006
7.93455
8.07908
8.25872
8.47798
8.73993
9.04534
9.39187
9.76933
10.1651
10.5618
10.9379
11.27
11.5363
11.7201
11.8132
11.8188
11.7508
11.6312
11.4852
11.3363
11.2032
11.0996
7.6666
7.48684
7.38138
7.32725
7.30712
7.30966
7.32859
7.36163
7.4096
7.47568
7.56483
7.68326
7.83777
8.03499
8.28052
8.57787
8.92756
9.32189
9.74918
10.1921
10.627
11.026
11.3601
11.6044
11.7428
11.7723
11.7046
11.5643
11.3829
11.1924
11.0191
10.8824
7.34817
7.15217
7.03639
6.97337
6.94278
6.93155
6.93254
6.94308
6.96401
6.99886
7.0534
7.13514
7.25275
7.41537
7.63168
7.90874
8.25081
8.65562
9.11414
9.61087
10.1209
10.6113
11.0448
11.3847
11.6025
11.6842
11.6355
11.4816
11.262
11.0205
10.7955
10.6154
6.91341
6.70325
6.57747
6.50426
6.46044
6.43129
6.40873
6.38961
6.37458
6.36732
6.37421
6.40393
6.46716
6.57592
6.74267
6.9791
7.29439
7.6938
8.17523
8.72766
9.32686
9.93568
10.507
10.9893
11.3358
11.5148
11.5189
11.3698
11.1146
10.8133
10.5229
10.2853
6.35159
6.12941
5.99368
5.9085
5.84797
5.79573
5.74267
5.68488
5.62248
5.55893
5.50084
5.45792
5.44281
5.47077
5.55889
5.72475
5.98449
6.35048
6.83467
7.435
8.13115
8.8838
9.63602
10.3187
10.8607
11.2031
11.3152
11.2066
10.9288
10.5621
10.1902
9.87734
5.65441
5.42246
5.27657
5.17712
5.09569
5.01425
4.9224
4.81514
4.69156
4.55436
4.40989
4.26845
4.14455
4.05695
4.0281
4.08285
4.24615
4.5397
4.99104
5.61721
6.40641
7.32107
8.29661
9.24502
10.0652
10.6609
10.9636
10.9565
10.6866
10.2557
9.7856
9.37521
4.81662
4.57725
4.42083
4.30448
4.1975
4.08009
3.9403
3.77154
3.57128
3.34075
3.08537
2.81543
2.54697
2.30229
2.10984
2.00308
2.01784
2.18798
2.5543
3.16612
4.02696
5.10718
6.33941
7.61867
8.81079
9.77169
10.3784
10.5665
10.3614
9.88126
9.29759
8.76295
3.83662
3.59228
3.42493
3.28911
3.15196
2.99188
2.79501
2.55264
2.2599
1.91576
1.52383
1.09362
0.642071
0.194789
-0.213479
-0.539601
-0.734661
-0.748717
-0.53312
0.00335405
0.891848
2.11862
3.62149
5.28465
6.94212
8.39525
9.44869
9.9638
9.91572
9.42365
8.71667
8.02683
2.71685
2.46996
2.29155
2.1342
1.96316
1.75486
1.49318
1.1667
0.767499
0.29139
-0.260808
-0.881327
-1.5532
-2.24816
-2.92538
-3.53156
-4.00339
-4.27275
-4.27533
-3.89473
-3.04721
-1.72169
0.0356197
2.10915
4.30904
6.38166
8.04528
9.05682
9.30137
8.86703
8.03867
7.15913
1.46372
1.21655
1.02749
0.847837
0.64112
0.381637
0.0506079
-0.366668
-0.8819
-1.50329
-2.2338
-3.06849
-3.99146
-4.97283
-5.96642
-6.90909
-7.7226
-8.31896
-8.61021
-8.47415
-7.75812
-6.41261
-4.45529
-1.98586
0.797652
3.59629
6.03665
7.74345
8.46236
8.19794
7.27
6.16404
0.0870783
-0.158449
-0.35687
-0.55748
-0.798428
-1.10781
-1.50752
-2.01609
-2.64967
-3.42129
-4.33855
-5.40043
-6.59331
-7.88696
-9.23121
-10.5542
-11.7635
-12.7506
-13.4013
-13.5892
-13.1082
-11.8483
-9.78594
-6.98627
-3.63226
-0.046406
3.31527
5.92751
7.34395
7.41182
6.4359
5.06679
-1.40089
-1.64354
-1.84878
-2.06595
-2.33501
-2.68699
-3.14743
-3.73929
-4.48375
-5.39923
-6.49874
-7.78602
-9.25082
-10.864
-12.5731
-14.2995
-15.9385
-17.3629
-18.4323
-19.0053
-18.8586
-17.8063
-15.7682
-12.7568
-8.91168
-4.5451
-0.16819
3.54464
5.90937
6.52491
5.59304
3.9274
-2.98751
-3.22711
-3.43501
-3.6602
-3.94508
-4.3245
-4.8286
-5.48538
-6.32157
-7.3614
-8.62364
-10.1173
-11.8364
-13.754
-15.8172
-17.9432
-20.0179
-21.8991
-23.4239
-24.4239
-24.683
-23.958
-22.0919
-19.0298
-14.839
-9.77867
-4.36826
0.595599
4.16525
5.59347
4.84891
2.86208
-4.66202
-4.90001
-5.10433
-5.32364
-5.60417
-5.98635
-6.50634
-7.19818
-8.09457
-9.22567
-10.616
-12.28
-14.2159
-16.4
-18.7805
-21.2727
-23.757
-26.0804
-28.0634
-29.5117
-30.2118
-29.9042
-28.3533
-25.4211
-21.0796
-15.4889
-9.11437
-2.81816
2.19498
4.74291
4.39147
2.07711
-6.41883
-6.65886
-6.85056
-7.04307
-7.28926
-7.63832
-8.13478
-8.82007
-9.73335
-10.9105
-12.3814
-14.1651
-16.2639
-18.6573
-21.2954
-24.0938
-26.9309
-29.6483
-32.0561
-33.9428
-35.0861
-35.2334
-34.1089
-31.4751
-27.1943
-21.2881
-14.097
-6.46424
0.196659
4.20783
4.53383
1.92221
-8.26173
-8.51036
-8.67625
-8.81151
-8.98108
-9.24819
-9.66951
-10.2957
-11.173
-12.3422
-13.8374
-15.6808
-17.878
-20.4107
-23.2314
-26.2572
-29.3673
-32.4025
-35.1693
-37.4484
-39.0051
-39.5959
-38.9462
-36.7324
-32.6969
-26.696
-18.8781
-9.96359
-1.48081
4.38198
5.77803
2.97132
-10.21
-10.4773
-10.5972
-10.631
-10.6658
-10.7873
-11.0697
-11.5755
-12.3575
-13.4608
-14.9212
-16.7623
-18.9904
-21.5888
-24.5117
-27.6783
-30.9703
-34.231
-37.2689
-39.8639
-41.7757
-42.7605
-42.5552
-40.8053
-37.1271
-31.2002
-22.9279
-12.7963
-2.31233
5.87212
8.89843
6.13616
-12.3085
-12.6075
-12.6481
-12.5153
-12.3356
-12.2308
-12.2994
-12.6175
-13.244
-14.2257
-15.5981
-17.3835
-19.587
-22.1906
-25.1478
-28.3784
-31.7659
-35.157
-38.3651
-41.1757
-43.3531
-44.6462
-44.7874
-43.4384
-40.1194
-34.3233
-25.6777
-14.3288
-1.59016
9.54457
15.0374
12.8128
-14.6456
-14.9895
-14.8911
-14.4919
-13.9886
-13.5568
-13.3269
-13.3889
-13.8048
-14.6188
-15.8624
-17.5532
-19.6917
-22.2563
-25.1977
-28.4345
-31.8507
-35.2955
-38.5867
-41.5157
-43.853
-45.3484
-45.7099
-44.5765
-41.4467
-35.673
-26.5705
-13.8521
1.56078
16.5489
25.7971
25.0543
-17.391
-17.7801
-17.4279
-16.6034
-15.6242
-14.7422
-14.1225
-13.8643
-14.0242
-14.638
-15.7274
-17.3012
-19.3525
-21.8532
-24.7496
-27.9574
-31.3593
-34.8055
-38.1154
-41.083
-43.4801
-45.0564
-45.5058
-44.3977
-41.1666
-35.0163
-25.0871
-10.6115
8.15265
28.3033
43.3005
45.7595
-20.8781
-21.2569
-20.4155
-18.9019
-17.2326
-15.7523
-14.651
-14.0199
-13.8959
-14.2958
-15.225
-16.679
-18.6401
-21.072
-23.9146
-27.0794
-30.4466
-33.8645
-37.1516
-40.0986
-42.4709
-44.006
-44.3905
-43.1072
-39.4565
-32.4639
-20.9538
-3.82057
19.3009
46.4251
70.1858
78.8724
-25.7983
-25.9134
-24.0735
-21.4195
-18.76
-16.5135
-14.8513
-13.8188
-13.4091
-13.6064
-14.392
-15.7438
-17.6307
-20.0066
-22.804
-25.9288
-29.2575
-32.6348
-35.8744
-38.7588
-41.0379
-42.4229
-42.5691
-40.8859
-36.4598
-28.0817
-14.1923
6.86139
36.1636
72.5826
109.461
129.595
-33.683
-32.5918
-28.6126
-24.0485
-20.0066
-16.8367
-14.5799
-13.1633
-12.5063
-12.5458
-13.2321
-14.522
-16.3699
-18.7188
-21.4934
-24.5938
-27.8912
-31.2256
-34.4032
-37.1936
-39.3235
-40.4634
-40.2033
-37.8792
-32.3001
-21.9514
-4.83282
21.3859
58.8964
108.223
164.036
204.602
-48.1256
-42.409
-33.7776
-26.1364
-20.3536
-16.2339
-13.452
-11.7594
-10.9719
-10.9627
-11.6449
-12.953
-14.827
-17.2006
-19.9918
-23.0956
-26.379
-29.6764
-32.7856
-35.4605
-37.3987
-38.2195
-37.425
-34.2256
-27.164
-14.3934
6.56753
38.885
86.3563
152.645
236.68
311.957
-77.4545
-54.8028
-37.0326
-25.3456
-17.9664
-13.3415
-10.5162
-8.95466
-8.35486
-8.54157
-9.40747
-10.8781
-12.8894
-15.3733
-18.2465
-21.4033
-24.7093
-27.9961
-31.0542
-33.6223
-35.3693
-35.8603
-34.5011
-30.3221
-21.719
-6.58896
17.9792
56.0587
113.637
200.245
329.725
486.563
-148.864
-58.5989
-27.5236
-15.1984
-9.38777
-6.3458
-4.77908
-4.17646
-4.3088
-5.06184
-6.37128
-8.19199
-10.4803
-13.1823
-16.2252
-19.5111
-22.9111
-26.2597
-29.3466
-31.9041
-33.5841
-33.9162
-32.2308
-27.4642
-18.0229
-1.70415
24.6089
65.5548
128.945
231.173
416.076
797.775
VECTORS velocity double
6.28102e-05 -6.28102e-05 0
9.77527e-05 2.78677e-05 0
-9.00865e-05 0.000159971 0
-0.000522228 0.00027217 0
-0.00114698 0.000352586 0
-0.00190619 0.000406626 0
-0.00275544 0.000442615 0
-0.0036644 0.000466348 0
-0.00461062 0.000479876 0
-0.00557259 0.000482095 0
-0.00652459 0.000469903 0
-0.00743386 0.000439368 0
-0.00825997 0.000386739 0
-0.00895601 0.000309295 0
-0.00947138 0.000206076 0
-0.00975597 7.85202e-05 0
-0.00976534 -6.91537e-05 0
-0.00946639 -0.000229791 0
-0.0088445 -0.000392105 0
-0.00791059 -0.000541806 0
-0.00670578 -0.000663 0
-0.00530252 -0.00074026 0
-0.00380102 -0.000761245 0
-0.00232034 -0.000719433 0
-0.000984595 -0.00061631 0
9.40643e-05 -0.00046235 0
0.000832877 -0.000276463 0
0.00119266 -8.33225e-05 0
0.00118764 8.83482e-05 0
0.000893576 0.000205711 0
0.000458848 0.000229017 0
0.000114916 0.000114915 0
-3.14702e-05 -9.41503e-05 0
-0.000344986 0.000337781 0
-0.0011924 0.000885313 0
-0.00256746 0.00135403 0
-0.00437198 0.0017 0
-0.00649198 0.00193842 0
-0.00882877 0.00209686 0
-0.0113029 0.00219519 0
-0.0138458 0.00224017 0
-0.0163891 0.00222708 0
-0.0188562 0.00214397 0
-0.0211578 0.00197623 0
-0.0231925 0.00171069 0
-0.0248501 0.00133895 0
-0.0260186 0.000860238 0
-0.0265933 0.000283651 0
-0.0264878 -0.000370396 0
-0.0256461 -0.00106915 0
-0.0240547 -0.00176611 0
-0.0217522 -0.00240416 0
-0.0188371 -0.00292062 0
-0.0154681 -0.0032549 0
-0.0118582 -0.003358 0
-0.00825883 -0.00320269 0
-0.00493532 -0.0027923 0
-0.00213464 -0.0021657 0
-4.9958e-05 -0.00139661 0
0.0012138 -0.000586721 0
0.00166659 0.000143979 0
0.00144838 0.000662351 0
0.000834054 0.000821431 0
0.000235328 0.000465159 0
-0.000198094 0.000135413 0
-0.0010334 0.00125704 0
-0.00271164 0.00249171 0
-0.00512306 0.00353411 0
-0.00811127 0.00431265 0
-0.011521 0.00485553 0
-0.0152175 0.00521299 0
-0.0190851 0.00542077 0
-0.0230172 0.00548962 0
-0.0269046 0.00540836 0
-0.0306274 0.00515255 0
-0.0340519 0.00469389 0
-0.0370329 0.00400872 0
-0.0394194 0.00308493 0
-0.0410641 0.00192741 0
-0.0418351 0.000562209 0
-0.0416288 -0.000960749 0
-0.0403832 -0.00256605 0
-0.0380899 -0.00415396 0
-0.0348044 -0.00560426 0
-0.0306542 -0.00678588 0
-0.0258415 -0.00757129 0
-0.0206382 -0.00785489 0
-0.0153699 -0.00757347 0
-0.0103895 -0.00672542 0
-0.00603865 -0.00538408 0
-0.00260113 -0.00370042 0
-0.000254741 -0.00189305 0
0.000970225 -0.000227451 0
0.00121754 0.00100468 0
0.000809625 0.00150135 0
0.000246554 0.000947041 0
-0.000385629 0.000719136 0
-0.00180784 0.00293083 0
-0.00440002 0.00508834 0
-0.00790402 0.00685291 0
-0.0120848 0.00816285 0
-0.0167444 0.00907463 0
-0.021719 0.009665 0
-0.0268671 0.00998439 0
-0.0320536 0.0100447 0
-0.0371385 0.00982561 0
-0.0419694 0.009289 0
-0.0463809 0.00839345 0
-0.0501982 0.00710745 0
-0.0532453 0.00541969 0
-0.0553547 0.00334678 0
-0.0563796 0.000938822 0
-0.0562063 -0.00171698 0
-0.0547655 -0.00449618 0
-0.0520427 -0.00723992 0
-0.0480894 -0.00975708 0
-0.043035 -0.0118377 0
-0.037093 -0.013274 0
-0.0305612 -0.0138874 0
-0.02381 -0.0135605 0
-0.0172583 -0.0122705 0
-0.0113327 -0.0101155 0
-0.00641223 -0.00732692 0
-0.00276652 -0.00425866 0
-0.000497664 -0.00135566 0
0.000498878 0.000889031 0
0.000550131 0.00197365 0
0.000197169 0.00139076 0
-0.000577152 0.00168192 0
-0.00260331 0.00541641 0
-0.00613427 0.00872589 0
-0.0107446 0.0113297 0
-0.0161086 0.0132309 0
-0.0219827 0.0145402 0
-0.0281783 0.0153697 0
-0.0345351 0.0157845 0
-0.0408992 0.0157952 0
-0.0471101 0.0153707 0
-0.052994 0.0144587 0
-0.058365 0.0130062 0
-0.0630298 0.0109768 0
-0.0667958 0.00836348 0
-0.0694816 0.00519813 0
-0.0709267 0.00155753 0
-0.0710029 -0.00243278 0
-0.0696224 -0.0066017 0
-0.0667463 -0.0107333 0
-0.0623997 -0.0145636 0
-0.0566884 -0.017797 0
-0.0498125 -0.0201327 0
-0.042073 -0.0213001 0
-0.0338686 -0.0211033 0
-0.0256767 -0.0194712 0
-0.0180139 -0.0165032 0
-0.0113744 -0.0124991 0
-0.00615086 -0.00795573 0
-0.0025539 -0.00352441 0
-0.000552144 5.94809e-05 0
0.000153689 0.00204612 0
0.000118508 0.00170644 0
-0.000766057 0.00302513 0
-0.00338849 0.00872179 0
-0.00784469 0.0134077 0
-0.0135395 0.016953 0
-0.0200545 0.0194866 0
-0.0271016 0.0212057 0
-0.0344715 0.0222697 0
-0.0419917 0.0227615 0
-0.0494983 0.022689 0
-0.0568193 0.0220089 0
-0.0637695 0.0206547 0
-0.070151 0.0185627 0
-0.0757583 0.0156924 0
-0.080386 0.0120417 0
-0.0838373 0.00765698 0
-0.0859329 0.00263943 0
-0.0865199 -0.00285148 0
-0.0854777 -0.00860575 0
-0.0827256 -0.0143574 0
-0.0782415 -0.0197702 0
-0.072086 -0.0244572 0
-0.0644238 -0.0280107 0
-0.0555398 -0.0300456 0
-0.0458462 -0.0302558 0
-0.035873 -0.0284838 0
-0.0262345 -0.0247919 0
-0.017564 -0.0195205 0
-0.0104177 -0.0133043 0
-0.00516345 -0.00702705 0
-0.00188626 -0.00171682 0
-0.000343065 0.00157339 0
2.31669e-05 0.00184812 0
-0.000947687 0.00473887 0
-0.00414117 0.012824 0
-0.0094804 0.0191009 0
-0.016208 0.0236822 0
-0.0238192 0.0268837 0
-0.0319859 0.0290225 0
-0.0404835 0.0303204 0
-0.0491338 0.0308815 0
-0.0577699 0.0307116 0
-0.0662168 0.0297542 0
-0.0742848 0.0279277 0
-0.0817699 0.0251562 0
-0.0884573 0.0213936 0
-0.0941283 0.0166392 0
-0.0985664 0.0109489 0
-0.101565 0.0044416 0
-0.102934 -0.00269729 0
-0.10251 -0.0102267 0
-0.100156 -0.0178418 0
-0.095789 -0.0251372 0
-0.0894047 -0.0316298 0
-0.0811131 -0.0367919 0
-0.0711618 -0.0400996 0
-0.0599566 -0.0411006 0
-0.0480663 -0.0395024 0
-0.0362022 -0.0352759 0
-0.0251563 -0.0287528 0
-0.0156922 -0.0206824 0
-0.00839563 -0.0121997 0
-0.00352879 -0.00468821 0
-0.000943852 0.000416653 0
-8.82557e-05 0.00178303 0
-0.00111679 0.00680335 0
-0.00483916 0.0176753 0
-0.0109935 0.0257432 0
-0.0186754 0.0314495 0
-0.0273042 0.0353562 0
-0.0365197 0.0379322 0
-0.0460876 0.0394761 0
-0.0558301 0.0401185 0
-0.0655832 0.0398637 0
-0.075175 0.0386408 0
-0.0844167 0.0363508 0
-0.0931012 0.0329026 0
-0.101006 0.0282392 0
-0.107896 0.0223546 0
-0.11353 0.0153058 0
-0.117667 0.00722003 0
-0.120072 -0.00170128 0
-0.120529 -0.0111902 0
-0.118843 -0.0209178 0
-0.114856 -0.0304155 0
-0.108489 -0.0391029 0
-0.0997766 -0.0463229 0
-0.088905 -0.0513916 0
-0.0762456 -0.0536733 0
-0.0623794 -0.0526862 0
-0.0480972 -0.0482384 0
-0.0343551 -0.0405784 0
-0.0221605 -0.0305155 0
-0.0123874 -0.0194361 0
-0.0055573 -0.00914874 0
-0.00167843 -0.00158662 0
-0.00022125 0.00147352 0
-0.00126698 0.00918712 0
-0.00545752 0.0232045 0
-0.0123331 0.033244 0
-0.0208633 0.0401608 0
-0.0304051 0.0448154 0
-0.0405743 0.0478577 0
-0.0511325 0.0496767 0
-0.061907 0.0504348 0
-0.0727414 0.0501351 0
-0.0834712 0.0486911 0
-0.093912 0.0459829 0
-0.103856 0.041899 0
-0.113073 0.0363639 0
-0.12131 0.0293574 0
-0.1283 0.020927 0
-0.133762 0.0111979 0
-0.137414 0.00037828 0
-0.138986 -0.0112405 0
-0.138223 -0.023317 0
-0.134894 -0.035332 0
-0.128834 -0.0466133 0
-0.119988 -0.0563718 0
-0.108451 -0.0637504 0
-0.0945264 -0.0678987 0
-0.078764 -0.0680894 0
-0.0619967 -0.0638846 0
-0.0453249 -0.0553463 0
-0.0300191 -0.0432479 0
-0.0173097 -0.0291864 0
-0.00808152 -0.0154568 0
-0.00259502 -0.00464395 0
-0.000386811 0.00086546 0
-0.00139096 0.0118451 0
-0.00596876 0.0293149 0
-0.0134444 0.0414848 0
-0.0226878 0.0496936 0
-0.0330081 0.0551446 0
-0.0440044 0.058694 0
-0.0554386 0.0608329 0
-0.0671456 0.0617601 0
-0.0789804 0.0614789 0
-0.0907882 0.0598849 0
-0.102392 0.0568334 0
-0.113585 0.0521857 0
-0.124131 0.0458398 0
-0.133763 0.0377508 0
-0.142186 0.0279466 0
-0.149085 0.0165397 0
-0.154133 0.00373702 0
-0.157007 -0.0101531 0
-0.157399 -0.0247768 0
-0.155012 -0.0395874 0
-0.149595 -0.0538347 0
-0.140986 -0.0666063 0
-0.129168 -0.0768704 0
-0.114329 -0.0835424 0
-0.0969367 -0.0856007 0
-0.0778039 -0.0822734 0
-0.0581257 -0.0733075 0
-0.0394235 -0.0592945 0
-0.0233353 -0.0419374 0
-0.0112286 -0.0240405 0
-0.0037537 -0.00902169 0
-0.000598681 -0.000120032 0
-0.00148108 0.0147171 0
-0.0063445 0.035884 0
-0.0142714 0.0503182 0
-0.0240627 0.0598949 0
-0.034994 0.0661948 0
-0.0466534 0.0702995 0
-0.0588049 0.072813 0
-0.0712927 0.073975 0
-0.0839836 0.0737897 0
-0.0967352 0.0721335 0
-0.109379 0.0688326 0
-0.121715 0.0637153 0
-0.133504 0.0566448 0
-0.144469 0.0475427 0
-0.154298 0.0364073 0
-0.162649 0.0233293 0
-0.169159 0.00850579 0
-0.173458 -0.00774902 0
-0.175196 -0.0250522 0
-0.174028 -0.0428653 0
-0.169619 -0.0603828 0
-0.161696 -0.0765903 0
-0.150104 -0.0902968 0
-0.134877 -0.100182 0
-0.116333 -0.104897 0
-0.0951885 -0.103255 0
-0.0726496 -0.0945433 0
-0.050434 -0.0789766 0
-0.0306039 -0.0581737 0
-0.0151259 -0.0353889 0
-0.00522076 -0.0150533 0
-0.000872726 -0.00159144 0
-0.00153021 0.0177284 0
-0.00655831 0.0427642 0
-0.0147615 0.0595681 0
-0.024906 0.0705808 0
-0.0362473 0.0777814 0
-0.0483656 0.0824908 0
-0.0610267 0.0854343 0
-0.0740829 0.0868977 0
-0.0874131 0.0868881 0
-0.100888 0.0852615 0
-0.114352 0.0818126 0
-0.127612 0.0763318 0
-0.140437 0.0686416 0
-0.15255 0.0586233 0
-0.163632 0.0462381 0
-0.17333 0.0315471 0
-0.18126 0.014729 0
-0.187028 -0.0039062 0
-0.190251 -0.0239342 0
-0.190548 -0.0448536 0
-0.187515 -0.0658359 0
-0.180775 -0.0858011 0
-0.170019 -0.103434 0
-0.15509 -0.117201 0
-0.136093 -0.125419 0
-0.11355 -0.126421 0
-0.0885697 -0.118896 0
-0.0629649 -0.102444 0
-0.0391844 -0.0783165 0
-0.019882 -0.0500265 0
-0.00706319 -0.0231396 0
-0.00122613 -0.00369029 0
-0.00153275 0.0207914 0
-0.00658918 0.0497858 0
-0.0148722 0.0690328 0
-0.0251498 0.0815383 0
-0.0366693 0.0896847 0
-0.0490041 0.0950406 0
-0.0619186 0.0984601 0
-0.075271 0.100281 0
-0.0889503 0.100515 0
-0.102841 0.0990003 0
-0.116803 0.0954993 0
-0.130659 0.0897624 0
-0.144192 0.0815688 0
-0.157139 0.0707557 0
-0.169194 0.0572428 0
-0.180009 0.0410557 0
-0.189206 0.0223479 0
-0.196383 0.00141892 0
-0.201141 -0.0212781 0
-0.203078 -0.045276 0
-0.201755 -0.0697689 0
-0.196701 -0.0936628 0
-0.187454 -0.115574 0
-0.173637 -0.133807 0
-0.155079 -0.146368 0
-0.132012 -0.151082 0
-0.105313 -0.145914 0
-0.0767447 -0.1296 0
-0.0490385 -0.102648 0
-0.0255672 -0.0684692 0
-0.00934305 -0.0337399 0
-0.00167686 -0.00659327 0
-0.00148567 0.0238098 0
-0.00642521 0.0567633 0
-0.0145781 0.0784912 0
-0.0247507 0.0925301 0
-0.0361931 0.101655 0
-0.0484706 0.107683 0
-0.0613421 0.111604 0
-0.0746667 0.113814 0
-0.0883417 0.114336 0
-0.102265 0.112993 0
-0.116316 0.109518 0
-0.13034 0.103623 0
-0.144144 0.0950451 0
-0.157495 0.0835775 0
-0.170117 0.0690979 0
-0.181695 0.0515942 0
-0.191878 0.0311886 0
-0.200283 0.00816041 0
-0.20651 -0.0170348 0
-0.210164 -0.0439282 0
-0.210807 -0.0717966 0
-0.207902 -0.0995946 0
-0.200844 -0.125946 0
-0.189023 -0.149073 0
-0.171947 -0.166736 0
-0.149461 -0.176266 0
-0.122068 -0.174821 0
-0.0912973 -0.160032 0
-0.0599933 -0.131225 0
-0.0321939 -0.0911621 0
-0.0121107 -0.0473544 0
-0.00224272 -0.0105128 0
-0.00138945 0.0266849 0
-0.00606701 0.0635053 0
-0.0138771 0.0877122 0
-0.0236998 0.103304 0
-0.0347972 0.11342 0
-0.0467247 0.120122 0
-0.0592297 0.124541 0
-0.0721673 0.127139 0
-0.08544 0.127959 0
-0.09896 0.126815 0
-0.112627 0.123415 0
-0.126316 0.117439 0
-0.13987 0.108588 0
-0.153099 0.0966147 0
-0.165776 0.0813601 0
-0.17764 0.0627748 0
-0.188397 0.040947 0
-0.197714 0.0161245 0
-0.20522 -0.0112657 0
-0.210554 -0.0407091 0
-0.213307 -0.0716198 0
-0.212915 -0.103069 0
-0.208665 -0.13378 0
-0.199722 -0.162003 0
-0.185245 -0.18536 0
-0.164616 -0.200757 0
-0.137821 -0.204519 0
-0.105951 -0.192975 0
-0.0717283 -0.163809 0
-0.0397006 -0.118405 0
-0.0153984 -0.0644966 0
-0.00294071 -0.0156963 0
-0.00124874 0.0293231 0
-0.00553019 0.0698261 0
-0.012796 0.0964673 0
-0.0220307 0.113607 0
-0.0325174 0.124702 0
-0.0437985 0.132049 0
-0.0556047 0.136925 0
-0.0677819 0.139869 0
-0.080235 0.140954 0
-0.0928898 0.139994 0
-0.10567 0.136683 0
-0.118485 0.130675 0
-0.131223 0.121643 0
-0.143746 0.109311 0
-0.155893 0.0934879 0
-0.167476 0.0740951 0
-0.178282 0.0511885 0
-0.188061 0.0249798 0
-0.196528 -0.00414785 0
-0.203373 -0.0356483 0
-0.208228 -0.0690725 0
-0.210562 -0.103674 0
-0.209603 -0.138384 0
-0.20433 -0.171616 0
-0.193553 -0.201003 0
-0.17614 -0.223156 0
-0.151433 -0.233621 0
-0.119875 -0.227301 0
-0.0837802 -0.199802 0
-0.0479446 -0.150276 0
-0.0192167 -0.0856561 0
-0.00378711 -0.0224241 0
-0.00107266 0.0316445 0
-0.0048469 0.0755604 0
-0.0113934 0.104545 0
-0.0198252 0.123195 0
-0.0294529 0.135228 0
-0.039805 0.143157 0
-0.0505907 0.14841 0
-0.0616429 0.151614 0
-0.0728669 0.152886 0
-0.0842026 0.152053 0
-0.0956007 0.148803 0
-0.107009 0.142779 0
-0.118365 0.133633 0
-0.129595 0.121073 0
-0.14061 0.104888 0
-0.151313 0.0849808 0
-0.161589 0.0613838 0
-0.171302 0.0342772 0
-0.18028 0.00399923 0
-0.188294 -0.028937 0
-0.195058 -0.0641644 0
-0.200127 -0.101179 0
-0.202737 -0.139227 0
-0.201739 -0.177043 0
-0.195634 -0.212458 0
-0.182763 -0.241985 0
-0.161733 -0.260528 0
-0.132138 -0.261547 0
-0.0955683 -0.238221 0
-0.0567038 -0.186557 0
-0.0235532 -0.111253 0
-0.00479911 -0.0310103 0
-0.000874723 0.0335919 0
-0.00406607 0.0805786 0
-0.00976171 0.111769 0
-0.017215 0.131856 0
-0.0257694 0.144749 0
-0.0349396 0.153158 0
-0.0444115 0.158666 0
-0.0540037 0.162002 0
-0.063622 0.16334 0
-0.0732221 0.162534 0
-0.0827846 0.159282 0
-0.0922997 0.153223 0
-0.101759 0.144005 0
-0.111155 0.131327 0
-0.120479 0.114974 0
-0.129726 0.0948438 0
-0.13889 0.0709612 0
-0.147964 0.0434866 0
-0.156909 0.0127128 0
-0.165614 -0.0209315 0
-0.173915 -0.0571049 0
-0.181501 -0.095584 0
-0.187688 -0.136025 0
-0.191293 -0.177638 0
-0.190584 -0.218676 0
-0.183416 -0.255806 0
-0.167622 -0.283531 0
-0.141779 -0.293983 0
-0.106432 -0.277703 0
-0.0656892 -0.226682 0
-0.028379 -0.14159 0
-0.00599896 -0.0418084 0
-0.000672576 0.0351392 0
-0.00325303 0.0848031 0
-0.00802617 0.118014 0
-0.0143814 0.139421 0
-0.0216966 0.153054 0
-0.0294749 0.161801 0
-0.0373817 0.167402 0
-0.045224 0.170701 0
-0.0529113 0.171947 0
-0.0604191 0.171035 0
-0.0677618 0.167686 0
-0.074976 0.161548 0
-0.0821114 0.152275 0
-0.0892272 0.139569 0
-0.0963928 0.123222 0
-0.103692 0.103141 0
-0.111224 0.0793605 0
-0.119103 0.0520398 0
-0.127437 0.0214397 0
-0.136282 -0.0121086 0
-0.145616 -0.0482929 0
-0.155277 -0.087149 0
-0.164748 -0.128802 0
-0.172922 -0.173083 0
-0.177967 -0.218895 0
-0.177355 -0.263367 0
-0.168174 -0.300944 0
-0.147882 -0.322704 0
-0.115672 -0.316539 0
-0.0745629 -0.269697 0
-0.0336589 -0.176789 0
-0.00742035 -0.0552277 0
-0.000487762 0.0362996 0
-0.00248927 0.0882247 0
-0.00634533 0.123221 0
-0.0115543 0.145777 0
-0.0175237 0.159982 0
-0.0237512 0.168879 0
-0.0298902 0.17437 0
-0.0357449 0.17743 0
-0.0412363 0.178396 0
-0.0463662 0.177223 0
-0.0511889 0.173663 0
-0.0557919 0.167388 0
-0.0602852 0.158064 0
-0.0647961 0.145407 0
-0.0694686 0.129223 0
-0.0744673 0.109438 0
-0.0799823 0.0861106 0
-0.0862323 0.0594187 0
-0.0934566 0.0296198 0
-0.101882 -0.00301917 0
-0.111646 -0.0382839 0
-0.122753 -0.0763894 0
-0.134909 -0.117934 0
-0.147213 -0.163473 0
-0.157902 -0.21277 0
-0.164246 -0.263759 0
-0.162716 -0.311263 0
-0.149632 -0.34576 0
-0.122588 -0.352739 0
-0.082952 -0.314242 0
-0.0393616 -0.216738 0
-0.00911537 -0.0717634 0
-0.000346184 0.0371335 0
-0.00187398 0.0909201 0
-0.00491272 0.127421 0
-0.00901162 0.150886 0
-0.0135949 0.165426 0
-0.0181646 0.174231 0
-0.0223799 0.179371 0
-0.0260589 0.181962 0
-0.0291481 0.182445 0
-0.0316861 0.180843 0
-0.0337739 0.176954 0
-0.0355548 0.170481 0
-0.037202 0.161111 0
-0.0389115 0.148579 0
-0.0408991 0.13271 0
-0.0434033 0.113454 0
-0.0466905 0.0908972 0
-0.051059 0.0652506 0
-0.0568407 0.0367938 0
-0.0643837 0.00577499 0
-0.0739782 -0.027719 0
-0.0858012 -0.0640244 0
-0.0998025 -0.104142 0
-0.115394 -0.149371 0
-0.131089 -0.200488 0
-0.144215 -0.256571 0
-0.150863 -0.313334 0
-0.146339 -0.361297 0
-0.126479 -0.384107 0
-0.0904445 -0.358544 0
-0.045459 -0.261012 0
-0.0111578 -0.0920366 0
-0.000280145 0.0377598 0
-0.00153001 0.0930714 0
-0.003964 0.130742 0
-0.00708327 0.154782 0
-0.0103053 0.169335 0
-0.0131541 0.177741 0
-0.0153245 0.182247 0
-0.016677 0.184118 0
-0.0172047 0.183906 0
-0.0169968 0.181711 0
-0.0162095 0.177386 0
-0.0150464 0.170667 0
-0.0137458 0.161272 0
-0.012573 0.148956 0
-0.0118133 0.133562 0
-0.0117741 0.115067 0
-0.0127874 0.0935843 0
-0.0152074 0.0693519 0
-0.0194113 0.042678 0
-0.0257972 0.0138197 0
-0.0347555 -0.0172108 0
-0.0465956 -0.0508696 0
-0.0614804 -0.0884108 0
-0.0791977 -0.131793 0
-0.0987381 -0.18283 0
-0.117815 -0.242027 0
-0.132515 -0.306529 0
-0.13742 -0.367721 0
-0.126615 -0.408347 0
-0.0965488 -0.400405 0
-0.0519013 -0.308784 0
-0.0136366 -0.116831 0
-0.00033369 0.0383737 0
-0.00161827 0.094992 0
-0.00379345 0.13343 0
-0.00616035 0.15758 0
-0.00809899 0.171698 0
-0.00918685 0.179315 0
-0.00920277 0.18286 0
-0.00809147 0.183746 0
-0.00592247 0.182636 0
-0.00285339 0.179704 0
0.00089513 0.174857 0
0.00505378 0.167874 0
0.00931751 0.158501 0
0.013354 0.146518 0
0.0168069 0.131787 0
0.0193027 0.114306 0
0.0204591 0.0942018 0
0.0198916 0.0717219 0
0.0172206 0.047183 0
0.0120686 0.0208525 0
0.00404376 -0.00726042 0
-0.00722911 -0.037707 0
-0.0220599 -0.0718578 0
-0.0405718 -0.112117 0
-0.0623779 -0.16116 0
-0.085921 -0.221077 0
-0.107781 -0.290917 0
-0.122322 -0.363887 0
-0.122139 -0.423169 0
-0.100596 -0.437193 0
-0.0585472 -0.358693 0
-0.0166332 -0.147101 0
-0.000574164 0.0392815 0
-0.0023667 0.0971613 0
-0.00478377 0.135853 0
-0.00671009 0.15945 0
-0.00746387 0.17252 0
-0.00673573 0.178852 0
-0.00446186 0.181065 0
-0.000727001 0.180696 0
0.00429005 0.178501 0
0.0103367 0.174724 0
0.0171083 0.169318 0
0.0242674 0.162096 0
0.0314475 0.152835 0
0.0382566 0.141338 0
0.0442811 0.12749 0
0.049096 0.111293 0
0.0522791 0.0928752 0
0.0534249 0.07247 0
0.0521597 0.050371 0
0.0481516 0.0268246 0
0.0411067 0.00183726 0
0.0307459 -0.025171 0
0.0167707 -0.0555879 0
-0.00122048 -0.0918841 0
-0.0235143 -0.137293 0
-0.0495141 -0.195401 0
-0.0768436 -0.267404 0
-0.100407 -0.349295 0
-0.111913 -0.426437 0
-0.101568 -0.465813 0
-0.0650307 -0.408659 0
-0.0201727 -0.183906 0
-0.00111488 0.0409706 0
-0.00412115 0.100271 0
-0.00744842 0.138488 0
-0.00928487 0.160579 0
-0.00890612 0.171767 0
-0.00622747 0.176199 0
-0.0014475 0.176664 0
0.00513645 0.174777 0
0.0131832 0.171356 0
0.0223211 0.166685 0
0.0321653 0.160741 0
0.0423164 0.153363 0
0.052357 0.144348 0
0.0618511 0.133522 0
0.0703479 0.120784 0
0.0773938 0.106138 0
0.0825492 0.0896924 0
0.0854081 0.0716482 0
0.0856197 0.0522465 0
0.0829031 0.0316738 0
0.0770429 0.00989317 0
0.0678287 -0.0136518 0
0.0549923 -0.0402955 0
0.038169 -0.0723619 0
0.0168909 -0.113243 0
-0.00931617 -0.167244 0
-0.0397576 -0.23779 0
-0.0707792 -0.324324 0
-0.0943028 -0.416378 0
-0.097823 -0.482697 0
-0.0705328 -0.455602 0
-0.0241375 -0.228217 0
-0.00215563 0.0442411 0
-0.00742028 0.105271 0
-0.0124633 0.141858 0
-0.0144799 0.161062 0
-0.0128459 0.169271 0
-0.00790198 0.171072 0
-0.000252863 0.169362 0
0.00950156 0.165741 0
0.0208186 0.161028 0
0.0332048 0.155488 0
0.0462025 0.149095 0
0.0593666 0.141693 0
0.0722496 0.133093 0
0.0843959 0.123136 0
0.0953447 0.111725 0
0.104641 0.0988545 0
0.111856 0.0846053 0
0.116606 0.0691268 0
0.118574 0.0525887 0
0.117524 0.0350974 0
0.113296 0.0165579 0
0.105737 -0.00354344 0
0.0945992 -0.0264294 0
0.0794906 -0.0542961 0
0.0598359 -0.0903763 0
0.0348556 -0.138923 0
0.00386173 -0.204676 0
-0.0321088 -0.290447 0
-0.0669314 -0.391909 0
-0.0867196 -0.483857 0
-0.0734132 -0.495039 0
-0.0281174 -0.280472 0
-0.00404409 0.0504408 0
-0.0130633 0.113356 0
-0.0205872 0.146341 0
-0.0226879 0.160696 0
-0.0192531 0.164568 0
-0.0113769 0.162955 0
-0.000241422 0.158694 0
0.0131818 0.153231 0
0.0281373 0.147265 0
0.0440273 0.140975 0
0.0603471 0.134291 0
0.0766354 0.127045 0
0.0924454 0.119049 0
0.107333 0.110146 0
0.120859 0.10024 0
0.132597 0.0893047 0
0.142153 0.0773837 0
0.149185 0.0645672 0
0.153417 0.0509489 0
0.154649 0.0365542 0
0.152746 0.0212326 0
0.147585 0.004502 0
0.138933 -0.0146856 0
0.126349 -0.0383473 0
0.109106 -0.0694271 0
0.0860951 -0.111881 0
0.0559105 -0.170539 0
0.0176164 -0.250319 0
-0.0264519 -0.353146 0
-0.0641254 -0.465159 0
-0.0706203 -0.520549 0
-0.0311442 -0.339733 0
-0.00732829 0.0618132 0
-0.0219989 0.125673 0
-0.032112 0.15166 0
-0.0331784 0.158544 0
-0.0264895 0.156597 0
-0.014342 0.150903 0
0.00136423 0.143905 0
0.0192821 0.13668 0
0.0384899 0.129654 0
0.0583421 0.122844 0
0.0783389 0.116105 0
0.098047 0.109234 0
0.11706 0.102036 0
0.134981 0.09435 0
0.151422 0.0860691 0
0.166015 0.077145 0
0.178421 0.0675808 0
0.188349 0.05741 0
0.195565 0.0466585 0
0.19989 0.0352871 0
0.201185 0.0231078 0
0.199305 0.0096683 0
0.194023 -0.00591898 0
0.184844 -0.0253503 0
0.170839 -0.0511757 0
0.15054 -0.0868239 0
0.121871 -0.136742 0
0.082509 -0.20646 0
0.0316097 -0.302038 0
-0.0238638 -0.42312 0
-0.0567272 -0.523229 0
-0.0311896 -0.402067 0
-0.0125976 0.0817391 0
-0.0343059 0.142126 0
-0.0446256 0.15564 0
-0.0410523 0.152057 0
-0.0278117 0.143154 0
-0.00881102 0.133198 0
0.0133785 0.123714 0
0.0371894 0.115142 0
0.0616894 0.107484 0
0.0863027 0.100548 0
0.110617 0.0940904 0
0.134287 0.0878701 0
0.156996 0.0816787 0
0.178432 0.0753506 0
0.198291 0.068769 0
0.216279 0.0618643 0
0.232129 0.0546054 0
0.245605 0.0469809 0
0.256508 0.0389692 0
0.264666 0.0304928 0
0.269918 0.0213554 0
0.272065 0.0111534 0
0.270801 -0.000858119 0
0.265548 -0.0159783 0
0.255208 -0.0362026 0
0.237942 -0.0642326 0
0.211046 -0.103768 0
0.171052 -0.160079 0
0.114647 -0.241115 0
0.0428171 -0.35674 0