# vtk DataFile Version 2.0
Lid-driven cavity
ASCII
DATASET STRUCTURED_POINTS
DIMENSIONS 32 32 1
ORIGIN 0.015625 0.015625 0
SPACING 0.03125 0.03125 1
POINT_DATA 1024
SCALARS pressure double 1
LOOKUP_TABLE default
1.58978
1.56997
1.55299
1.55045
1.56735
1.60523
1.66406
1.74326
1.84215
1.96005
2.09627
2.24999
2.42013
2.60523
2.80329
3.01172
3.22729
3.44619
3.66405
3.87584
4.07622
4.25992
4.42211
4.55886
4.66746
4.74676
4.79731
4.82137
4.82299
4.80818
4.78551
4.76716
1.6096
1.58943
1.57826
1.58161
1.60267
1.64277
1.70222
1.7808
1.87812
1.99366
2.12682
2.27682
2.44259
2.62267
2.81511
3.01737
3.2263
3.43826
3.64913
3.85411
4.0481
4.22612
4.38364
4.517
4.62377
4.70305
4.75553
4.78358
4.79107
4.78329
4.76679
4.74882
1.62668
1.59953
1.58811
1.59362
1.61701
1.65872
1.7188
1.79708
1.89331
2.00712
2.13804
2.2854
2.44823
2.6252
2.81444
3.01354
3.2194
3.42853
3.63691
3.83972
4.03189
4.20838
4.36464
4.49702
4.60315
4.6822
4.73502
4.76402
4.77294
4.7664
4.74931
4.72586
1.62784
1.59285
1.57878
1.58429
1.60862
1.65122
1.71172
1.78985
1.88537
1.99805
2.12756
2.27341
2.4348
2.61055
2.799
2.99784
3.2041
3.41428
3.62433
3.82927
4.02378
4.20255
4.36075
4.49449
4.60123
4.68017
4.73225
4.76004
4.76732
4.75844
4.73757
4.70767
1.60516
1.56321
1.5459
1.55043
1.57482
1.61777
1.67849
1.75654
1.85171
1.96386
2.09284
2.23833
2.39978
2.57623
2.76622
2.96764
3.17763
3.39262
3.60833
3.81949
4.02037
4.20517
4.3685
4.506
4.61481
4.69402
4.74471
4.76976
4.77329
4.75988
4.73379
4.69802
1.55356
1.50576
1.48536
1.48859
1.51262
1.5556
1.61642
1.69451
1.78968
1.90191
2.0312
2.17748
2.34044
2.5194
2.71316
2.91985
3.13677
3.36017
3.58543
3.80688
4.01824
4.21297
4.38488
4.52886
4.64151
4.72168
4.77065
4.79179
4.78993
4.77043
4.73825
4.69714
1.46938
1.41665
1.39351
1.39542
1.41894
1.46182
1.52272
1.60101
1.69652
1.80936
1.93974
2.08781
2.25356
2.43663
2.63613
2.85049
3.07723
3.31246
3.55107
3.78697
4.01315
4.22214
4.40664
4.56043
4.67927
4.76159
4.80882
4.82508
4.81632
4.78917
4.74985
4.70328
1.3497
1.29267
1.26709
1.26777
1.29077
1.33351
1.39451
1.47311
1.56922
1.68306
1.81507
1.96565
2.13512
2.32346
2.53016
2.75404
2.99298
3.24307
3.49865
3.75321
3.99895
4.22722
4.42925
4.59728
4.72572
4.81222
4.85825
4.86884
4.85153
4.81482
4.76668
4.71356
1.19193
1.131
1.10318
1.1027
1.12516
1.16772
1.22879
1.30769
1.40443
1.51938
1.65316
1.80648
1.97997
2.17402
2.38858
2.62294
2.87547
3.14272
3.41841
3.69573
3.96613
4.21961
4.44554
4.63398
4.77725
4.87153
4.91793
4.92247
4.89476
4.84592
4.78634
4.72442
0.993659
0.929008
0.89905
0.897401
0.919241
0.961471
1.0224
1.10137
1.19843
1.31411
1.44923
1.60475
1.78165
1.98077
2.20258
2.44698
2.71301
2.99827
3.2961
3.5997
3.89997
4.18556
4.4436
4.66116
4.82739
4.93581
4.98624
4.98538
4.94541
4.88105
4.80619
4.73183
0.752559
0.684239
0.652107
0.649172
0.670174
0.711753
0.772102
0.850538
0.947155
1.06257
1.19777
1.35393
1.53237
1.73437
1.96102
2.21299
2.49026
2.79176
3.11172
3.44358
3.77832
4.10355
4.40394
4.66274
4.86436
4.99776
5.05968
5.05644
5.00298
4.91894
4.82341
4.73126
0.466354
0.394312
0.359872
0.355413
0.375205
0.415596
0.474616
0.551503
0.646326
0.759717
0.892715
1.04666
1.22312
1.4238
1.65046
1.90469
2.18771
2.49991
2.83852
3.19757
3.5694
3.94146
4.29617
4.61223
4.86746
5.04344
5.13069
5.13276
5.06668
4.95848
4.83514
4.71776
0.132826
0.0569276
0.0199591
0.0136337
0.031704
0.070162
0.1268
0.200686
0.291748
0.400501
0.527896
0.675255
0.844257
1.03694
1.25571
1.50323
1.78226
2.09523
2.44322
2.8231
3.23046
3.65425
4.07571
4.46872
4.80265
5.048
5.18424
5.20751
5.13447
4.99853
4.83851
4.68584
-0.250173
-0.330142
-0.369922
-0.378514
-0.362759
-0.327113
-0.274135
-0.205064
-0.120278
-0.0195801
0.0976637
0.232502
0.386468
0.561709
0.761145
0.988593
1.24873
1.54679
1.88766
2.27421
2.70843
3.18363
3.68207
4.17376
4.61826
4.97089
5.19336
5.26671
5.20144
5.03759
4.83074
4.62964
-0.684733
-0.769077
-0.811977
-0.823212
-0.81032
-0.778344
-0.73035
-0.668072
-0.592417
-0.503776
-0.402156
-0.287148
-0.157761
-0.0121185
0.152938
0.342276
0.562746
0.823051
1.13277
1.50202
1.94408
2.4612
3.04062
3.65115
4.24272
4.75184
5.11443
5.28514
5.25747
5.07327
4.80962
4.54331
-1.17294
-1.26209
-1.30839
-1.32248
-1.31275
-1.28502
-1.24308
-1.18938
-1.12565
-1.05321
-0.973113
-0.886066
-0.79216
-0.690353
-0.577748
-0.448744
-0.294271
-0.101486
0.145534
0.46362
0.880652
1.41678
2.06965
2.81186
3.58657
4.30987
4.8839
5.22243
5.28459
5.10183
4.77444
4.42225
-1.717
-1.81156
-1.86143
-1.87824
-1.87144
-1.84788
-1.81233
-1.76829
-1.71862
-1.66597
-1.6129
-1.56179
-1.51448
-1.47149
-1.43092
-1.38707
-1.32896
-1.23934
-1.09501
-0.869237
-0.523579
-0.00773053
0.694109
1.56623
2.55154
3.54814
4.41899
5.02112
5.25486
5.11813
4.7281
4.26549
-2.31951
-2.42035
-2.47374
-2.49249
-2.48744
-2.46679
-2.43669
-2.40199
-2.36709
-2.33632
-2.31426
-2.30556
-2.3145
-2.344
-2.3941
-2.45993
-2.52935
-2.58101
-2.58363
-2.49783
-2.27818
-1.83976
-1.1344
-0.156277
1.0481
2.36716
3.6252
4.609
5.13045
5.11686
4.68095
4.08035
-2.98388
-3.09224
-3.14874
-3.16764
-3.16165
-3.14086
-3.11321
-3.08536
-3.06355
-3.05424
-3.0644
-3.10149
-3.17286
-3.28467
-3.43992
-3.63574
-3.86009
-4.08852
-4.2822
-4.38865
-4.34731
-4.05697
-3.41465
-2.38162
-0.979118
0.687208
2.41288
3.90885
4.86834
5.09669
4.65765
3.89071
-3.71509
-3.83272
-3.89128
-3.90699
-3.89517
-3.86856
-3.83752
-3.81093
-3.79729
-3.80543
-3.84505
-3.9267
-4.0613
-4.25886
-4.52624
-4.86379
-5.26111
-5.69244
-6.11292
-6.45766
-6.64596
-6.57215
-6.07543
-5.06563
-3.5221
-1.52214
0.723137
2.85727
4.43221
5.06956
4.70918
3.75176
-4.52076
-4.65012
-4.70866
-4.71548
-4.68977
-4.64807
-4.60398
-4.5692
-4.55475
-4.57202
-4.63348
-4.75285
-4.94472
-5.22323
-5.59961
-6.07841
-6.65241
-7.29671
-7.96321
-8.57732
-9.03969
-9.23156
-8.9661
-8.07661
-6.48436
-4.21122
-1.44035
1.43256
3.81365
5.07797
4.93304
3.77557
-5.41295
-5.5574
-5.61208
-5.6007
-5.54851
-5.47763
-5.40612
-5.34908
-5.32032
-5.33373
-5.40434
-5.54875
-5.78489
-6.13077
-6.60195
-7.20758
-7.94468
-8.79135
-9.69958
-10.5896
-11.3482
-11.8355
-11.8646
-11.1954
-9.67002
-7.22812
-3.98063
-0.312161
3.06218
5.22255
5.50565
4.17307
-6.41107
-6.57501
-6.61878
-6.57421
-6.47642
-6.35593
-6.23687
-6.13846
-6.07731
-6.06952
-6.13211
-6.28388
-6.5453
-6.93742
-7.47941
-8.18457
-9.05445
-10.0715
-11.1909
-12.3328
-13.3776
-14.1679
-14.5105
-14.1405
-12.7969
-10.3158
-6.68856
-2.21844
2.32038
5.6992
6.72909
5.31722
-7.54691
-7.73548
-7.75518
-7.65312
-7.48096
-7.28202
-7.08858
-6.9245
-6.80889
-6.75924
-6.79365
-6.93199
-7.19607
-7.60865
-8.19112
-8.95968
-9.91968
-11.0582
-12.3355
-13.6758
-14.9606
-16.0253
-16.6637
-16.6169
-15.5369
-13.1361
-9.24496
-4.00399
1.85617
6.84096
9.0903
7.82876
-8.87388
-9.09137
-9.0615
-8.86155
-8.57167
-8.25431
-7.95207
-7.69327
-7.49832
-7.38469
-7.37005
-7.47386
-7.71771
-8.12448
-8.71638
-9.51109
-10.5162
-11.7218
-13.0925
-14.558
-16.0059
-17.2752
-18.1542
-18.3792
-17.5771
-15.3189
-11.2477
-5.26358
2.08313
9.15424
13.3238
12.6805
-10.4854
-10.7291
-10.5979
-10.2309
-9.75739
-9.267
-8.81346
-8.42739
-8.12767
-7.92911
-7.84681
-7.89803
-8.10254
-8.48216
-9.05852
-9.84907
-10.8616
-12.0873
-13.4926
-15.0111
-16.5355
-17.9117
-18.9329
-19.3234
-18.6986
-16.5223
-12.2558
-5.48825
3.56306
13.3367
20.4631
21.3129
-12.5544
-12.794
-12.4509
-11.7948
-11.0369
-10.3005
-9.64605
-9.09966
-8.67274
-8.37318
-8.21049
-8.19731
-8.35034
-8.6892
-9.23367
-9.99957
-10.9932
-12.2047
-13.5999
-15.1129
-16.6382
-18.0246
-19.0685
-19.4935
-18.8652
-16.5624
-11.862
-4.09566
6.99111
20.2644
31.8591
35.7558
-15.4241
-15.532
-14.7308
-13.5662
-12.3726
-11.2984
-10.3915
-9.65802
-9.09086
-8.68452
-8.43835
-8.35873
-8.4582
-8.75319
-9.26065
-9.99364
-10.9556
-12.1337
-13.4909
-14.9584
-16.4273
-17.7419
-18.6912
-18.9927
-18.1477
-15.4268
-9.90476
-0.608251
13.1571
30.9339
49.1332
58.7564
-19.8349
-19.3423
-17.5194
-15.4595
-13.6222
-12.1146
-10.9203
-9.99526
-9.29563
-8.79318
-8.47557
-8.34204
-8.40007
-8.66203
-9.14118
-9.84683
-10.7785
-11.9189
-13.2262
-14.6254
-15.9996
-17.1802
-17.9359
-17.9543
-16.659
-13.1666
-6.34251
5.12271
22.5238
46.3333
73.9842
93.9134
-27.5093
-24.7143
-20.6142
-17.064
-14.384
-12.4125
-10.9561
-9.87869
-9.09175
-8.5407
-8.19729
-8.05141
-8.10472
-8.36532
-8.8427
-9.54227
-10.4592
-11.571
-12.8298
-14.1522
-15.4095
-16.4142
-16.9022
-16.5061
-14.5425
-9.96335
-1.4153
12.8043
34.7757
66.5801
107.939
145.683
-42.4759
-31.2437
-22.615
-17.0769
-13.6157
-11.3903
-9.9
-8.8722
-8.1619
-7.69275
-7.42793
-7.35403
-7.47123
-7.78646
-8.30766
-9.03794
-9.96926
-11.075
-12.3012
-13.5564
-14.6991
-15.5202
-15.717
-14.8478
-12.1164
-6.37638
3.91869
20.9049
47.7132
89.2817
152.685
230.248
-78.3122
-33.3072
-18.0446
-12.191
-9.51477
-8.08142
-7.2206
-6.67238
-6.32826
-6.14312
-6.10239
-6.20775
-6.46947
-6.90106
-7.51451
-8.31512
-9.29568
-10.4291
-11.6596
-12.8923
-13.979
-14.6975
-14.7173
-13.5337
-10.3325
-3.94587
7.26802
25.7249
55.447
104.743
195.523
384.413
VECTORS velocity double
2.34923e-05 -2.34923e-05 0
-4.4505e-05 9.14896e-05 0
-0.000347842 0.000211848 0
-0.000858687 0.000298997 0
-0.00151007 0.000352383 0
-0.00224323 0.000380777 0
-0.00301671 0.000392709 0
-0.00380333 0.000393903 0
-0.0045844 0.000387166 0
-0.00534461 0.000373047 0
-0.00606828 0.000350624 0
-0.00673712 0.000318222 0
-0.00732937 0.000274021 0
-0.00781998 0.000216588 0
-0.0081819 0.000145336 0
-0.00838814 6.09011e-05 0
-0.00841433 -3.47086e-05 0
-0.00824107 -0.000138553 0
-0.0078575 -0.000245012 0
-0.00726577 -0.000346722 0
-0.00648379 -0.000435259 0
-0.00554653 -0.000502002 0
-0.00450526 -0.000539267 0
-0.00342442 -0.000541572 0
-0.00237604 -0.000506812 0
-0.00143222 -0.000437006 0
-0.000656773 -0.000338442 0
-9.7063e-05 -0.000221268 0
0.000223328 -9.91225e-05 0
0.000312401 1.00493e-05 0
0.000222006 8.03447e-05 0
7.08308e-05 7.08306e-05 0
-9.60285e-05 4.90439e-05 0
-0.000552068 0.00054299 0
-0.0015162 0.00102781 0
-0.00290981 0.00138749 0
-0.00461149 0.00161694 0
-0.00650634 0.00174423 0
-0.0085029 0.0017993 0
-0.0105324 0.00180346 0
-0.0125416 0.00176782 0
-0.014484 0.00169504 0
-0.0163138 0.00158211 0
-0.0179814 0.00142312 0
-0.0194317 0.0012117 0
-0.0206054 0.000943192 0
-0.0214412 0.000616502 0
-0.0218808 0.000235558 0
-0.021874 -0.000189968 0
-0.0213854 -0.000645204 0
-0.020401 -0.00110633 0
-0.0189349 -0.00154322 0
-0.0170337 -0.00192191 0
-0.0147785 -0.00220784 0
-0.012283 -0.00237023 0
-0.00968747 -0.00238694 0
-0.00714827 -0.00224903 0
-0.00482275 -0.00196413 0
-0.00285203 -0.00155749 0
-0.00134291 -0.00107106 0
-0.00035068 -0.000561954 0
0.000136825 -0.000103698 0
0.000215735 0.000205577 0
8.54237e-05 0.000227085 0
-0.000240567 0.00038564 0
-0.00113164 0.00155351 0
-0.00276211 0.0026119 0
-0.00496423 0.00339914 0
-0.00756952 0.00391226 0
-0.0104291 0.00420338 0
-0.0134218 0.00432942 0
-0.0164512 0.00433229 0
-0.0194377 0.00423463 0
-0.0223096 0.00404253 0
-0.0249959 0.00375074 0
-0.0274221 0.00334823 0
-0.0295086 0.00282348 0
-0.0311725 0.00216898 0
-0.0323311 0.00138514 0
-0.0329079 0.000483309 0
-0.0328399 -0.000512471 0
-0.0320864 -0.0015649 0
-0.0306362 -0.00262117 0
-0.0285144 -0.00361626 0
-0.0257871 -0.00447742 0
-0.0225638 -0.00513079 0
-0.0189966 -0.00551008 0
-0.0152725 -0.00556671 0
-0.0116012 -0.00527971 0
-0.00819656 -0.00466361 0
-0.00525316 -0.00377213 0
-0.00292143 -0.00269727 0
-0.00128376 -0.00156565 0
-0.000334378 -0.000536892 0
3.54891e-05 0.000189993 0
4.79798e-05 0.000360488 0
-0.000373483 0.000999689 0
-0.0016735 0.00313055 0
-0.00392956 0.00492139 0
-0.00686925 0.00623144 0
-0.0102709 0.00708693 0
-0.0139563 0.00757371 0
-0.0177836 0.00777906 0
-0.0216382 0.00776667 0
-0.0254226 0.00757115 0
-0.0290468 0.00720211 0
-0.0324215 0.0066521 0
-0.0354538 0.00590535 0
-0.0380469 0.00494598 0
-0.0401018 0.00376525 0
-0.0415219 0.00236761 0
-0.0422197 0.000775424 0
-0.0421245 -0.000967788 0
-0.0411917 -0.00279587 0
-0.0394104 -0.0046217 0
-0.0368086 -0.00633931 0
-0.0334602 -0.0078301 0
-0.0294891 -0.00897251 0
-0.0250692 -0.00965551 0
-0.0204195 -0.00979505 0
-0.015791 -0.00935112 0
-0.0114454 -0.0083425 0
-0.00762671 -0.00685531 0
-0.00452946 -0.00504305 0
-0.00226752 -0.00311947 0
-0.000850201 -0.00134977 0
-0.000168857 -4.83368e-05 0
4.50083e-06 0.000412968 0
-0.000488601 0.00186177 0
-0.00215155 0.00523144 0
-0.00497086 0.00789588 0
-0.00857249 0.00979827 0
-0.0126794 0.0110287 0
-0.0170844 0.0117223 0
-0.0216291 0.0120025 0
-0.026187 0.0119558 0
-0.0306492 0.0116287 0
-0.0349142 0.0110338 0
-0.0388807 0.0101615 0
-0.042444 0.00899156 0
-0.0454958 0.00750466 0
-0.0479264 0.00569209 0
-0.0496295 0.00356396 0
-0.0505082 0.0011556 0
-0.0504838 -0.00146766 0
-0.0495034 -0.00420911 0
-0.0475468 -0.00694636 0
-0.044633 -0.00953027 0
-0.0408288 -0.0117917 0
-0.0362574 -0.0135536 0
-0.0311022 -0.0146495 0
-0.0256056 -0.0149473 0
-0.0200574 -0.0143756 0
-0.014772 -0.0129491 0
-0.010054 -0.0107854 0
-0.0061564 -0.00810785 0
-0.00323908 -0.00523393 0
-0.00133737 -0.00255434 0
-0.000347279 -0.000515211 0
-2.91318e-05 0.000388337 0
-0.000587253 0.00293763 0
-0.00256601 0.00779729 0
-0.00588176 0.0114651 0
-0.01007 0.0140189 0
-0.0148014 0.0156463 0
-0.0198418 0.01655 0
-0.0250191 0.0168969 0
-0.0301991 0.0167993 0
-0.0352673 0.0163156 0
-0.0401166 0.0154612 0
-0.0446399 0.0142239 0
-0.0487264 0.012579 0
-0.0522611 0.0105038 0
-0.0551272 0.00798963 0
-0.0572097 0.00505199 0
-0.0584018 0.00173843 0
-0.0586115 -0.00186523 0
-0.0577688 -0.00563458 0
-0.0558312 -0.00941503 0
-0.052792 -0.0130147 0
-0.0486933 -0.0162101 0
-0.0436403 -0.0187597 0
-0.0378121 -0.0204267 0
-0.0314671 -0.0210117 0
-0.0249352 -0.0203912 0
-0.0185955 -0.0185586 0
-0.0128345 -0.0156548 0
-0.00799151 -0.011979 0
-0.00429935 -0.00797226 0
-0.00183773 -0.00417933 0
-0.000511304 -0.00120673 0
-5.44005e-05 0.000304804 0
-0.000671849 0.00419673 0
-0.00292359 0.0107687 0
-0.00667243 0.0155583 0
-0.0113768 0.0188184 0
-0.0166619 0.0208635 0
-0.0222702 0.0219814 0
-0.0280193 0.022392 0
-0.0337718 0.0222366 0
-0.0394123 0.0215869 0
-0.044834 0.0204609 0
-0.04993 0.0188434 0
-0.0545883 0.0167043 0
-0.0586916 0.0140165 0
-0.0621179 0.0107693 0
-0.0647436 0.0069806 0
-0.0664478 0.00270611 0
-0.0671177 -0.00195328 0
-0.0666545 -0.00685243 0
-0.0649776 -0.0118116 0
-0.0620357 -0.0165993 0
-0.0578253 -0.0209346 0
-0.052413 -0.0245005 0
-0.0459565 -0.0269705 0
-0.0387193 -0.0280502 0
-0.0310713 -0.0275326 0
-0.0234686 -0.0253596 0
-0.0164078 -0.0216756 0
-0.0103534 -0.0168556 0
-0.00565287 -0.0114884 0
-0.00246218 -0.00631554 0
-0.00070633 -0.0021528 0
-8.13808e-05 0.000169023 0
-0.000744306 0.00561289 0
-0.00323087 0.0140908 0
-0.00735505 0.0201091 0
-0.0125116 0.0241285 0
-0.0182886 0.0266154 0
-0.02441 0.0279592 0
-0.030688 0.0284414 0
-0.036986 0.0282375 0
-0.0431934 0.0274339 0
-0.0492092 0.0260516 0
-0.0549322 0.0240716 0
-0.0602546 0.0214569 0
-0.0650603 0.0181729 0
-0.0692236 0.0142025 0
-0.0726104 0.0095599 0
-0.0750802 0.00430086 0
-0.0764896 -0.0014687 0
-0.0766974 -0.00759244 0
-0.0755693 -0.0138766 0
-0.072989 -0.0200565 0
-0.068885 -0.0257919 0
-0.0632624 -0.0306782 0
-0.0562361 -0.0342755 0
-0.048058 -0.0361604 0
-0.0391303 -0.0359982 0
-0.0299942 -0.0336328 0
-0.0212826 -0.0291748 0
-0.0136322 -0.0230613 0
-0.00756317 -0.0160523 0
-0.00335942 -0.00914599 0
-0.000994386 -0.00344325 0
-0.000123754 -3.61126e-05 0
-0.000805763 0.00716295 0
-0.00349231 0.0177139 0
-0.00793885 0.0250568 0
-0.0134892 0.0298877 0
-0.0197027 0.0328465 0
-0.0262913 0.0344381 0
-0.0330661 0.0350153 0
-0.0398966 0.0347922 0
-0.0466824 0.0338724 0
-0.0533344 0.0322809 0
-0.0597627 0.0299935 0
-0.0658689 0.0269637 0
-0.0715411 0.0231441 0
-0.0766508 0.0185042 0
-0.0810504 0.0130446 0
-0.0845733 0.00680887 0
-0.0870344 -0.000106183 0
-0.0882366 -0.00754492 0
-0.0879766 -0.0153124 0
-0.0860563 -0.0231213 0
-0.0823147 -0.0305726 0
-0.076672 -0.0371627 0
-0.0691753 -0.0423139 0
-0.0600415 -0.0454339 0
-0.0496869 -0.046007 0
-0.0387321 -0.043715 0
-0.027964 -0.0385723 0
-0.0182376 -0.0310404 0
-0.010318 -0.0220619 0
-0.00469469 -0.0129634 0
-0.00144385 -0.00524171 0
-0.00019613 -0.000355997 0
-0.000856599 0.00882532 0
-0.00370978 0.0215912 0
-0.00842823 0.0303445 0
-0.0143169 0.0360391 0
-0.0209146 0.0395063 0
-0.0279274 0.0413797 0
-0.0351704 0.0420916 0
-0.0425245 0.0419005 0
-0.0499049 0.0409303 0
-0.05724 0.0392102 0
-0.0644574 0.0367098 0
-0.0714727 0.0333687 0
-0.0781814 0.0291199 0
-0.084452 0.0239086 0
-0.0901203 0.0177081 0
-0.0949858 0.0105337 0
-0.0988123 0.00245662 0
-0.101334 -0.00638392 0
-0.102267 -0.0158007 0
-0.10132 -0.0255002 0
-0.0982265 -0.0350284 0
-0.0928016 -0.0437746 0
-0.0849988 -0.0510015 0
-0.0749693 -0.0559095 0
-0.0631122 -0.0577431 0
-0.0501032 -0.0559427 0
-0.0368796 -0.0503363 0
-0.0245496 -0.0413328 0
-0.0142014 -0.0300374 0
-0.0066361 -0.0181764 0
-0.00212395 -0.00779166 0
-0.000312797 -0.000864923 0
-0.000896546 0.0105785 0
-0.00388268 0.0256774 0
-0.00882253 0.0359166 0
-0.0149936 0.0425268 0
-0.0219221 0.0465449 0
-0.0293133 0.048745 0
-0.0369912 0.0496472 0
-0.0448525 0.0495602 0
-0.0528334 0.0486317 0
-0.0608854 0.046896 0
-0.0689586 0.0443146 0
-0.0769868 0.0408075 0
-0.0848757 0.0362787 0
-0.0924907 0.0306355 0
-0.0996479 0.0238067 0
-0.106108 0.0157604 0
-0.111574 0.00652314 0
-0.115704 -0.00379964 0
-0.118125 -0.0150304 0
-0.118454 -0.0268887 0
-0.116312 -0.0388756 0
-0.111392 -0.0502722 0
-0.103531 -0.0601676 0
-0.0927798 -0.0675241 0
-0.079475 -0.0712905 0
-0.0643004 -0.0705789 0
-0.0483112 -0.0649128 0
-0.0328747 -0.0545228 0
-0.0194728 -0.0405977 0
-0.00934799 -0.0253062 0
-0.00310376 -0.0114183 0
-0.000487748 -0.00166547 0
-0.000924867 0.0123999 0
-0.00400853 0.0299258 0
-0.00911694 0.0417165 0
-0.0155112 0.0492923 0
-0.0227113 0.0539079 0
-0.030426 0.0564877 0
-0.0384918 0.0576481 0
-0.046825 0.0577539 0
-0.0553865 0.0569803 0
-0.0641552 0.0553681 0
-0.0731075 0.052868 0
-0.0821991 0.049374 0
-0.0913475 0.0447495 0
-0.100416 0.0388483 0
-0.1092 0.0315354 0
-0.11742 0.0227108 0
-0.124717 0.0123367 0
-0.130669 0.000468196 0
-0.134817 -0.012728 0
-0.136687 -0.0269929 0
-0.135796 -0.0418048 0
-0.131713 -0.0563455 0
-0.124138 -0.06953 0
-0.112985 -0.0800667 0
-0.0984708 -0.0865665 0
-0.0812191 -0.0877292 0
-0.0623336 -0.0826372 0
-0.0434056 -0.071163 0
-0.0263498 -0.0544153 0
-0.0129897 -0.0349735 0
-0.00445515 -0.0165298 0
-0.000735934 -0.00288915 0
-0.000940628 0.0142654 0
-0.00408395 0.0342873 0
-0.0093044 0.0476839 0
-0.0158569 0.0562717 0
-0.0232601 0.0615318 0
-0.0312289 0.0645475 0
-0.0396141 0.0660394 0
-0.0483533 0.066435 0
-0.0574338 0.0659412 0
-0.0668641 0.0646063 0
-0.0766492 0.0623672 0
-0.0867681 0.0590852 0
-0.0971524 0.054571 0
-0.107665 0.0486085 0
-0.118086 0.0409799 0
-0.128098 0.0314972 0
-0.13729 0.0200399 0
-0.145171 0.00659823 0
-0.151194 -0.00868628 0
-0.154808 -0.0255518 0
-0.155451 -0.0434942 0
-0.152571 -0.0616182 0
-0.145722 -0.0786816 0
-0.134645 -0.0931455 0
-0.119382 -0.103265 0
-0.100404 -0.107261 0
-0.0787607 -0.103635 0
-0.0561775 -0.0916769 0
-0.034987 -0.0721477 0
-0.0177139 -0.0478742 0
-0.00625746 -0.0236201 0
-0.00107525 -0.00470034 0
-0.000943065 0.0161491 0
-0.00410608 0.0387099 0
-0.0093784 0.053754 0
-0.0160176 0.0633933 0
-0.023544 0.0693398 0
-0.0316793 0.0728435 0
-0.0402875 0.0747368 0
-0.0493268 0.075516 0
-0.0588102 0.0754242 0
-0.0687747 0.0745182 0
-0.0792536 0.0727192 0
-0.09025 0.0698485 0
-0.101711 0.0656535 0
-0.113507 0.0598344 0
-0.125407 0.0520743 0
-0.137073 0.0420806 0
-0.148059 0.0296351 0
-0.157825 0.0146496 0
-0.165759 -0.00277935 0
-0.171247 -0.0223578 0
-0.173662 -0.0436298 0
-0.172362 -0.0656623 0
-0.166755 -0.0870945 0
-0.156389 -0.106175 0
-0.141068 -0.120819 0
-0.121017 -0.128735 0
-0.0970948 -0.127725 0
-0.0710166 -0.116248 0
-0.0454407 -0.0943434 0
-0.0236553 -0.064737 0
-0.00859919 -0.0332698 0
-0.00152821 -0.0073038 0
-0.000932058 0.0180242 0
-0.00407438 0.0431401 0
-0.00933664 0.0598584 0
-0.0159858 0.0705772 0
-0.0235445 0.077241 0
-0.0317386 0.0812718 0
-0.0404426 0.0836207 0
-0.0496311 0.0848597 0
-0.059339 0.0852718 0
-0.0696282 0.0849243 0
-0.0805571 0.0837209 0
-0.0921522 0.0814383 0
-0.10438 0.0777533 0
-0.117123 0.072273 0
-0.13016 0.0645716 0
-0.143151 0.0542412 0
-0.155645 0.0409544 0
-0.167083 0.0245335 0
-0.176828 0.00501657 0
-0.184207 -0.0172868 0
-0.188556 -0.0419359 0
-0.189183 -0.0680292 0
-0.185371 -0.0941472 0
-0.176468 -0.118392 0
-0.161994 -0.138396 0
-0.141829 -0.151374 0
-0.116489 -0.154349 0
-0.0874834 -0.144708 0
-0.0576167 -0.121326 0
-0.0309036 -0.0862532 0
-0.0115726 -0.0461407 0
-0.00212219 -0.0109542 0
-0.000908665 0.0198649 0
-0.0039927 0.0475257 0
-0.00918534 0.0659276 0
-0.0157662 0.077738 0
-0.0232578 0.0851306 0
-0.0313856 0.0897042 0
-0.0400284 0.0925352 0
-0.0491712 0.0942765 0
-0.058864 0.0952557 0
-0.0691871 0.0955526 0
-0.0802192 0.0950537 0
-0.0920085 0.0934898 0
-0.104544 0.0904655 0
-0.117733 0.0854925 0
-0.131379 0.0780341 0
-0.145173 0.0675648 0
-0.158692 0.0536434 0
-0.171403 0.0359928 0
-0.182679 0.0145785 0
-0.191824 -0.0103245 0
-0.19816 -0.0382126 0
-0.200989 -0.0682966 0
-0.199506 -0.0991749 0
-0.192874 -0.1289 0
-0.180307 -0.154927 0
-0.161258 -0.174058 0
-0.135742 -0.182522 0
-0.104833 -0.176449 0
-0.0712156 -0.153068 0
-0.0394638 -0.112976 0
-0.0152604 -0.0629527 0
-0.00288831 -0.0159647 0
-0.000875717 0.0216493 0
-0.00387163 0.0518213 0
-0.00894395 0.071897 0
-0.0153831 0.0847885 0
-0.0227056 0.0928941 0
-0.0306297 0.0979925 0
-0.0390311 0.101291 0
-0.0478969 0.103529 0
-0.0572837 0.105083 0
-0.0672824 0.106047 0
-0.0779861 0.106295 0
-0.0894618 0.105514 0
-0.101725 0.10324 0
-0.114717 0.0988982 0
-0.128289 0.0918465 0
-0.14219 0.0814485 0
-0.156063 0.0671515 0
-0.169442 0.0485746 0
-0.181764 0.0255948 0
-0.192382 -0.00157866 0
-0.200627 -0.0323769 0
-0.205802 -0.0661285 0
-0.207087 -0.101541 0
-0.203506 -0.136747 0
-0.193975 -0.169178 0
-0.177463 -0.195369 0
-0.153345 -0.210844 0
-0.122012 -0.210369 0
-0.0856962 -0.189082 0
-0.0492167 -0.145193 0
-0.0197194 -0.0844357 0
-0.00386011 -0.0227131 0
-0.000838453 0.0233635 0
-0.00373093 0.0559955 0
-0.00865007 0.0777143 0
-0.0148878 0.0916482 0
-0.0219452 0.100414 0
-0.0295247 0.105976 0
-0.0374909 0.109676 0
-0.045825 0.112345 0
-0.0545823 0.114411 0
-0.063856 0.115991 0
-0.0737472 0.116946 0
-0.0843394 0.11693 0
-0.0956759 0.115423 0
-0.107743 0.111774 0
-0.120455 0.105254 0
-0.133645 0.0951318 0
-0.147057 0.0807534 0
-0.160343 0.0616378 0
-0.173055 0.0375655 0
-0.18465 0.00866319 0
-0.194502 -0.0245216 0
-0.201967 -0.0613438 0
-0.206283 -0.100726 0
-0.206402 -0.141024 0
-0.200985 -0.179848 0
-0.188503 -0.213693 0
-0.167587 -0.237556 0
-0.13771 -0.244866 0
-0.100274 -0.228336 0
-0.0598938 -0.182799 0
-0.0249675 -0.111254 0
-0.00507441 -0.0316476 0
-0.000805235 0.0250071 0
-0.00360224 0.0600413 0
-0.00836459 0.08335 0
-0.0143659 0.0982515 0
-0.0210778 0.107581 0
-0.0281782 0.113489 0
-0.0355145 0.117464 0
-0.043056 0.120432 0
-0.0508504 0.122876 0
-0.0589874 0.124937 0
-0.0675715 0.126475 0
-0.0766994 0.127121 0
-0.0864436 0.126313 0
-0.0968394 0.123347 0
-0.107875 0.11743 0
-0.119485 0.107757 0
-0.131542 0.0935974 0
-0.143847 0.0743845 0
-0.156121 0.0498048 0
-0.167984 0.0198824 0
-0.178927 -0.0149456 0
-0.188409 -0.0539737 0
-0.195776 -0.0964129 0
-0.200004 -0.140989 0
-0.199587 -0.185718 0
-0.192544 -0.227348 0
-0.17671 -0.260651 0
-0.150454 -0.277903 0
-0.11396 -0.269229 0
-0.071074 -0.225172 0
-0.0309797 -0.143901 0
-0.00657545 -0.0432975 0
-0.000788497 0.0266009 0
-0.00353241 0.0639885 0
-0.00817733 0.0888101 0
-0.0139437 0.104559 0
-0.0202554 0.114297 0
-0.0267583 0.120377 0
-0.0332802 0.124435 0
-0.0397778 0.1275 0
-0.0462895 0.130114 0
-0.0528997 0.132446 0
-0.0597137 0.134364 0
-0.06684 0.135487 0
-0.0743797 0.135232 0
-0.082418 0.132863 0
-0.0910199 0.127551 0
-0.100225 0.11845 0
-0.110043 0.104779 0
-0.120445 0.0859102 0
-0.131348 0.0614565 0
-0.142594 0.0313397 0
-0.153908 -0.00414568 0
-0.164899 -0.0443019 0
-0.175037 -0.088579 0
-0.183438 -0.136193 0
-0.188562 -0.185808 0
-0.188088 -0.234775 0
-0.179096 -0.278049 0
-0.158735 -0.307122 0
-0.125623 -0.309618 0
-0.0821992 -0.271093 0
-0.0376921 -0.182581 0
-0.00842061 -0.0582936 0
-0.000806245 0.0281956 0
-0.0035883 0.0679197 0
-0.00821427 0.0941498 0
-0.0137957 0.110567 0
-0.0196855 0.12049 0
-0.025494 0.126495 0
-0.0310348 0.13038 0
-0.0362583 0.133276 0
-0.0411991 0.13579 0
-0.0459395 0.138121 0
-0.0505875 0.140151 0
-0.0552642 0.141502 0
-0.0600979 0.141589 0
-0.0652216 0.139667 0
-0.0707725 0.1349 0
-0.0768913 0.126426 0
-0.0837202 0.11345 0
-0.0913988 0.0953194 0
-0.100053 0.0716049 0
-0.109773 0.0421564 0
-0.120565 0.00714394 0
-0.132266 -0.0328997 0
-0.144549 -0.0775598 0
-0.156754 -0.126605 0
-0.167462 -0.179565 0
-0.174201 -0.234753 0
-0.173445 -0.287818 0
-0.161136 -0.330024 0
-0.134064 -0.346901 0
-0.0925952 -0.318703 0
-0.0450037 -0.22707 0
-0.0106829 -0.0773971 0
-0.000884771 0.0298866 0
-0.00386471 0.0719907 0
-0.0086478 0.0994879 0
-0.0141521 0.116315 0
-0.0196324 0.126112 0
-0.0246698 0.131718 0
-0.0290795 0.135107 0
-0.0328229 0.137516 0
-0.0359444 0.139612 0
-0.0385344 0.141629 0
-0.0407098 0.143467 0
-0.0426071 0.144761 0
-0.044382 0.144939 0
-0.0462111 0.14327 0
-0.048296 0.138932 0
-0.0508661 0.131082 0
-0.0541813 0.118938 0
-0.0585307 0.101859 0
-0.0642281 0.0794165 0
-0.0715987 0.0514352 0
-0.0809379 0.0179967 0
-0.0923881 -0.0206012 0
-0.105894 -0.0640696 0
-0.121077 -0.112706 0
-0.136798 -0.167035 0
-0.150695 -0.226649 0
-0.158932 -0.288441 0
-0.156433 -0.344207 0
-0.138057 -0.378164 0
-0.101472 -0.365494 0
-0.0527609 -0.276582 0
-0.0134432 -0.101523 0
-0.0010638 0.0318352 0
-0.00449818 0.0764564 0
-0.0097123 0.105019 0
-0.0153072 0.121883 0
-0.0204155 0.131133 0
-0.0246104 0.13593 0
-0.0277431 0.138438 0
-0.0298161 0.140001 0
-0.0309066 0.141339 0
-0.0311286 0.142714 0
-0.0306184 0.144047 0
-0.0295333 0.144993 0
-0.0280568 0.145005 0
-0.0264054 0.143382 0
-0.0248349 0.139335 0
-0.023649 0.132063 0
-0.023206 0.120829 0
-0.0239176 0.10503 0
-0.0262457 0.0842715 0
-0.0306952 0.0584002 0
-0.037796 0.0274717 0
-0.0480338 -0.00838813 0
-0.0616644 -0.0491463 0
-0.078591 -0.0955197 0
-0.0980859 -0.149005 0
-0.118217 -0.210651 0
-0.135288 -0.279131 0
-0.143639 -0.347666 0
-0.136345 -0.400375 0
-0.107877 -0.408336 0
-0.0607018 -0.329627 0
-0.0167657 -0.131732 0
-0.00140633 0.0343053 0
-0.00569068 0.081705 0
-0.0117264 0.111021 0
-0.0176264 0.127376 0
-0.0223937 0.135515 0
-0.0256469 0.138996 0
-0.0273313 0.140189 0
-0.0275363 0.140528 0
-0.026403 0.14077 0
-0.0240888 0.141192 0
-0.0207609 0.141731 0
-0.0166031 0.142066 0
-0.0118268 0.141679 0
-0.00668358 0.139913 0
-0.0014757 0.136026 0
0.00342832 0.129283 0
0.00758606 0.119008 0
0.0104882 0.104659 0
0.0115657 0.0858922 0
0.0102008 0.0625939 0
0.00573574 0.0348439 0
-0.00251747 0.00273069 0
-0.015113 -0.034039 0
-0.0322561 -0.0765572 0
-0.0536706 -0.127058 0
-0.0781723 -0.187965 0
-0.102786 -0.260131 0
-0.121971 -0.339131 0
-0.127544 -0.410631 0
-0.110565 -0.443526 0
-0.0683399 -0.383837 0
-0.0206499 -0.169148 0
-0.00201702 0.0377287 0
-0.00774852 0.0882975 0
-0.0151182 0.117833 0
-0.0215354 0.132881 0
-0.0259173 0.13916 0
-0.0280353 0.140722 0
-0.0280209 0.140133 0
-0.0261111 0.13888 0
-0.0225465 0.13772 0
-0.0175469 0.136927 0
-0.0113191 0.13644 0
-0.0040741 0.135954 0
0.0039565 0.134984 0
0.012493 0.132929 0
0.0211814 0.129114 0
0.0295889 0.122883 0
0.0372025 0.113637 0
0.0434324 0.100899 0
0.0476271 0.0843802 0
0.0491001 0.0639978 0
0.0471662 0.0398389 0
0.0411857 0.0119694 0
0.0305778 -0.0200743 0
0.0148908 -0.0576919 0
-0.00616962 -0.103448 0
-0.032388 -0.160855 0
-0.0620557 -0.23296 0
-0.0907241 -0.318449 0
-0.109973 -0.406491 0
-0.107757 -0.466861 0
-0.0747501 -0.435734 0
-0.0249464 -0.214744 0
-0.00307521 0.0428209 0
-0.0111372 0.0969988 0
-0.0204299 0.125795 0
-0.0274434 0.13835 0
-0.0311773 0.141807 0
-0.0317514 0.140768 0
-0.029614 0.137935 0
-0.025221 0.134774 0
-0.0189446 0.131985 0
-0.0110771 0.129796 0
-0.00186172 0.128128 0
0.00847451 0.126685 0
0.0196799 0.125018 0
0.0314454 0.122593 0
0.0433845 0.118822 0
0.0550228 0.11313 0
0.0657997 0.105 0
0.075077 0.0940288 0
0.0821636 0.0799694 0
0.0863541 0.0627451 0
0.0869804 0.042399 0
0.0834556 0.0189146 0
0.0752461 -0.00820194 0
0.0618348 -0.040466 0
0.0427708 -0.08055 0
0.0176444 -0.132408 0
-0.0136664 -0.200428 0
-0.0490456 -0.286933 0
-0.0813868 -0.386417 0
-0.096762 -0.473776 0
-0.0782087 -0.480379 0
-0.0292105 -0.268901 0
-0.00488715 0.0507833 0
-0.0165274 0.108739 0
-0.028208 0.135028 0
-0.0354545 0.143377 0
-0.0377745 0.142834 0
-0.0359573 0.138497 0
-0.030932 0.133043 0
-0.0234371 0.127778 0
-0.0139908 0.123258 0
-0.0029496 0.119614 0
0.00942444 0.116721 0
0.0228979 0.114283 0
0.0372137 0.111899 0
0.0520585 0.109102 0
0.0670392 0.105393 0
0.0816727 0.100286 0
0.0953891 0.0933497 0
0.107547 0.0842436 0
0.117464 0.0727513 0
0.124459 0.0587778 0
0.127906 0.0422933 0
0.12727 0.0231806 0
0.122083 0.000928798 0
0.111788 -0.0258905 0
0.0957184 -0.0599917 0
0.07304 -0.105162 0
0.0427504 -0.166074 0
0.00438438 -0.247542 0
-0.0387143 -0.350369 0
-0.073473 -0.45969 0
-0.0756001 -0.510891 0
-0.032438 -0.33055 0
-0.00793813 0.0636086 0
-0.0246869 0.124302 0
-0.0384525 0.14491 0
-0.0444213 0.14671 0
-0.043501 0.1409 0
-0.0376034 0.132716 0
-0.0282883 0.124484 0
-0.0165948 0.117149 0
-0.00315873 0.111005 0
0.0116382 0.106029 0
0.0275449 0.102025 0
0.0443521 0.0986975 0
0.0618343 0.095686 0
0.0797103 0.092594 0
0.09762 0.0890105 0
0.115116 0.0845394 0
0.131669 0.0788276 0
0.146684 0.0715927 0
0.159532 0.0626372 0
0.16959 0.0518387 0
0.176281 0.039094 0
0.179102 0.0241951 0
0.177593 0.00661024 0
0.171189 -0.014873 0
0.159036 -0.0427863 0
0.13983 -0.0804832 0
0.11172 -0.132353 0
0.0726483 -0.203825 0
0.0221732 -0.300512 0
-0.0317663 -0.420849 0
-0.061441 -0.517931 0
-0.0325627 -0.39555 0
-0.0127697 0.0843164 0
-0.0355574 0.143131 0
-0.0484984 0.152788 0
-0.0490071 0.145309 0
-0.0409378 0.133311 0
-0.0277677 0.121238 0
-0.0116782 0.110558 0
0.00610824 0.101595 0
0.0249558 0.0942751 0
0.0445434 0.0883742 0
0.0646987 0.0836175 0
0.0852956 0.0797011 0
0.10619 0.0763061 0
0.127182 0.0731055 0
0.147998 0.0697733 0
0.16828 0.0659988 0
0.187591 0.0615041 0