# vtk DataFile Version 2.0
Lid-driven cavity
ASCII
DATASET STRUCTURED_POINTS
DIMENSIONS 32 32 1
ORIGIN 0.015625 0.015625 0
SPACING 0.03125 0.03125 1
POINT_DATA 1024
SCALARS pressure double 1
LOOKUP_TABLE default
0.865053
0.849631
0.83828
0.840157
0.859065
0.896061
0.951011
1.02335
1.11242
1.21754
1.33799
1.47296
1.62142
1.78207
1.95325
2.1329
2.31848
2.50707
2.69541
2.87972
3.05594
3.21997
3.3679
3.49626
3.60236
3.68447
3.74204
3.77581
3.78804
3.78282
3.76687
3.7509
0.880478
0.864804
0.857988
0.864326
0.88625
0.924748
0.979973
1.05167
1.13942
1.24266
1.36078
1.49297
1.63822
1.79526
1.96244
2.13771
2.31861
2.50227
2.68561
2.86496
3.03642
3.19607
3.34018
3.46552
3.56959
3.65091
3.70915
3.74524
3.76149
3.76161
3.75071
3.73493
0.891846
0.870822
0.863831
0.871774
0.895393
0.935017
0.990654
1.06211
1.14907
1.25112
1.36771
1.49816
1.64151
1.79656
1.96173
2.13503
2.31403
2.49593
2.67773
2.85575
3.02606
3.18473
3.32801
3.45266
3.55624
3.63733
3.69571
3.73242
3.74967
3.75068
3.73916
3.71851
0.888819
0.861954
0.853003
0.860955
0.885269
0.925581
0.981606
1.05308
1.13974
1.24125
1.3572
1.48699
1.6298
1.78452
1.94968
2.12337
2.30322
2.48643
2.66996
2.85002
3.02254
3.18336
3.32855
3.45469
3.55923
3.6407
3.69896
3.7351
3.75137
3.75069
3.73614
3.71005
0.865509
0.833608
0.822318
0.829589
0.854026
0.894727
0.951128
1.02287
1.1097
1.21136
1.32755
1.45781
1.60147
1.75754
1.9247
2.10114
2.28454
2.47208
2.66054
2.84592
3.02386
3.18989
3.33967
3.46945
3.5764
3.65897
3.71704
3.75186
3.76586
3.76208
3.74363
3.71283
0.818359
0.782332
0.76886
0.775265
0.799597
0.840576
0.897426
0.969713
1.0572
1.15971
1.27706
1.40893
1.55482
1.71392
1.88505
2.06654
2.25615
2.45099
2.64753
2.84152
3.02818
3.20253
3.35969
3.49538
3.60635
3.69085
3.74881
3.78178
3.79259
3.78482
3.76207
3.72723
0.744937
0.70547
0.690091
0.695679
0.719893
0.761187
0.818647
0.891796
0.980426
1.08446
1.20383
1.3384
1.48783
1.65153
1.82849
2.01722
2.2156
2.42064
2.62844
2.8344
3.03325
3.21931
3.38696
3.53114
3.64802
3.73551
3.79359
3.82425
3.83106
3.81844
3.79088
3.75217
0.643316
0.600831
0.583781
0.588672
0.612852
0.65458
0.712849
0.787171
0.877393
0.983537
1.10568
1.24387
1.39797
1.5676
1.75202
1.94994
2.1594
2.37743
2.59964
2.82107
3.03584
3.23745
3.41924
3.57511
3.70033
3.79229
3.85096
3.87892
3.88077
3.8622
3.82893
3.78585
0.511766
0.46646
0.447885
0.452185
0.476432
0.518718
0.577969
0.653708
0.745846
0.854519
0.979963
1.12241
1.28196
1.45852
1.6516
1.8602
2.08263
2.31611
2.55576
2.79622
3.031
3.25257
3.45299
3.62473
3.76171
3.8604
3.92061
3.94558
3.94131
3.91523
3.87472
3.82602
0.348585
0.300491
0.280437
0.284199
0.308569
0.35148
0.411797
0.489054
0.583232
0.694583
0.823502
0.970424
1.13572
1.31957
1.52186
1.74195
1.97852
2.22925
2.48889
2.75182
3.0109
3.25756
3.48226
3.67552
3.82926
3.93838
4.00207
4.02417
4.01244
3.97668
3.92656
3.87006
0.152022
0.10105
0.0794773
0.0826798
0.107153
0.150653
0.211971
0.290643
0.386706
0.500515
0.632617
0.78365
0.954251
1.14494
1.356
1.58729
1.838
2.10646
2.38775
2.67591
2.96351
3.24097
3.49695
3.71944
3.89743
4.02316
4.09421
4.11462
4.09415
4.04586
3.98267
3.91499
-0.0797645
-0.133793
-0.157004
-0.154456
-0.129991
-0.086063
-0.0239854
0.0557478
0.153198
0.26879
0.403192
0.557217
0.731754
0.927672
1.14571
1.38629
1.64934
1.93395
2.23672
2.55138
2.87081
3.18487
3.48045
3.74246
3.95577
4.10826
4.19413
4.21636
4.18666
4.12236
4.04125
3.95749
-0.348725
-0.406065
-0.431092
-0.429359
-0.405095
-0.361017
-0.298598
-0.218417
-0.120446
-0.00425248
0.13088
0.285876
0.461817
0.659883
0.881276
1.12709
1.39812
1.69457
2.01529
2.3547
2.70702
3.06245
3.40668
3.72126
3.98561
4.18089
4.29497
4.32717
4.29001
4.20611
4.10066
3.99386
-0.656937
-0.717914
-0.744982
-0.744251
-0.720419
-0.676543
-0.614332
-0.534535
-0.43725
-0.322144
-0.188568
-0.0356129
0.137866
0.333247
0.552132
0.796305
1.06763
1.36781
1.69793
2.05556
2.43746
2.83605
3.23717
3.61947
3.95586
4.21785
4.38257
4.44092
4.40312
4.29729
4.15944
4.02009
-1.00663
-1.07166
-1.10101
-1.10144
-1.07823
-1.03488
-0.97345
-0.894974
-0.799818
-0.6879
-0.558817
-0.411885
-0.246116
-0.0601617
0.147791
0.38012
0.63984
0.930511
1.25576
1.61812
2.01922
2.4568
2.91951
3.3848
3.8189
4.18073
4.43087
4.5442
4.52205
4.39591
4.21662
4.03201
-1.40026
-1.46985
-1.50171
-1.50336
-1.48079
-1.4381
-1.37785
-1.30154
-1.20997
-1.10353
-0.98231
-0.846142
-0.694537
-0.526542
-0.340494
-0.133692
0.0979641
0.36019
0.660104
1.00515
1.40477
1.86752
2.38896
2.94888
3.50837
4.01194
4.39708
4.61201
4.63744
4.50132
4.27222
4.02591
-1.84062
-1.91542
-1.94995
-1.95262
-1.93033
-1.888
-1.8289
-1.75518
-1.66834
-1.56948
-1.45951
-1.33914
-1.20885
-1.0686
-0.917433
-0.752836
-0.569953
-0.360857
-0.114319
0.183278
0.549309
1.01036
1.57529
2.23221
2.94154
3.63401
4.2185
4.60361
4.7315
4.61158
4.3284
3.99991
-2.33104
-2.41193
-2.44914
-2.45219
-2.42917
-2.38611
-2.32728
-2.25575
-2.17397
-2.08406
-1.98809
-1.88812
-1.7861
-1.68356
-1.58099
-1.47685
-1.3662
-1.2392
-1.08011
-0.867453
-0.576496
-0.160237
0.415966
1.15639
2.02877
2.95512
3.81372
4.46067
4.77576
4.72334
4.39196
3.95696
-2.87576
-2.96391
-3.00353
-3.00559
-2.9798
-2.9337
-2.87291
-2.80178
-2.72397
-2.64295
-2.56232
-2.48588
-2.41762
-2.36135
-2.31988
-2.29361
-2.27853
-2.26379
-2.22949
-2.14587
-1.97575
-1.66109
-1.12483
-0.336131
0.691899
1.88358
3.09149
4.11069
4.73159
4.83342
4.47899
3.91059
-3.48052
-3.57747
-3.61877
-3.61734
-3.58514
-3.53184
-3.46492
-3.39034
-3.31334
-3.23899
-3.17268
-3.12033
-3.08845
-3.08373
-3.11211
-3.17704
-3.27674
-3.40069
-3.52596
-3.61473
-3.61496
-3.46169
-3.03422
-2.25698
-1.10958
0.352088
1.96969
3.4788
4.55631
4.94407
4.62346
3.896
-4.15339
-4.26123
-4.30269
-4.29348
-4.24889
-4.18163
-4.10169
-4.01712
-3.93499
-3.86218
-3.80605
-3.77482
-3.77772
-3.82475
-3.9256
-4.08765
-4.31267
-4.59222
-4.90242
-5.19929
-5.41732
-5.47433
-5.23305
-4.54775
-3.34939
-1.65124
0.403941
2.50986
4.21804
5.07478
4.89264
3.99004
-4.90628
-5.02777
-5.06645
-5.0424
-4.97599
-4.88438
-4.781
-4.67649
-4.58
-4.50024
-4.44651
-4.42923
-4.46036
-4.55316
-4.72126
-4.97645
-5.32499
-5.76218
-6.26567
-6.7886
-7.2551
-7.56189
-7.56941
-7.0658
-5.9114
-4.05224
-1.57844
1.19997
3.72076
5.28355
5.41291
4.34566
-5.75729
-5.89595
-5.92633
-5.87588
-5.77309
-5.64178
-5.50006
-5.3617
-5.23798
-5.13932
-5.07658
-5.06205
-5.10994
-5.23637
-5.45849
-5.7923
-6.24878
-6.82798
-7.51133
-8.25298
-8.97213
-9.55014
-9.83386
-9.59046
-8.58418
-6.67199
-3.8484
-0.368267
3.13812
5.69885
6.40903
5.24559
-6.73486
-6.8947
-6.90629
-6.81037
-6.64891
-6.45575
-6.25527
-6.06479
-5.89746
-5.76486
-5.6788
-5.65265
-5.7021
-5.84524
-6.1018
-6.49103
-7.02789
-7.71707
-8.54503
-9.47015
-10.4128
-11.2479
-11.8045
-11.8554
-11.0829
-9.23198
-6.16115
-1.99625
2.64993
6.55895
8.25602
7.17731
-7.8854
-8.06961
-8.04177
-7.86819
-7.61376
-7.32729
-7.04108
-6.7758
-6.54561
-6.36209
-6.23688
-6.18337
-6.21761
-6.35848
-6.62686
-7.04365
-7.62627
-8.38297
-9.30474
-10.3554
-11.4607
-12.4984
-13.291
-13.6047
-13.1008
-11.3897
-8.16798
-3.35638
2.57169
8.25053
11.5368
10.926
-9.28846
-9.49431
-9.38475
-9.07756
-8.67696
-8.25311
-7.84681
-7.48034
-7.16659
-6.91509
-6.73561
-6.64012
-6.64376
-6.76485
-7.02412
-7.44296
-8.03964
-8.82376
-9.78842
-10.9008
-12.0916
-13.2445
-14.1869
-14.6795
-14.3803
-12.798
-9.45496
-4.00103
3.36848
11.3342
17.0922
17.6787
-11.0891
-11.2909
-11.0087
-10.4678
-9.83832
-9.21681
-8.64894
-8.15325
-7.73657
-7.40291
-7.15775
-7.00996
-6.97229
-7.06131
-7.29679
-7.69927
-8.28626
-9.06661
-10.033
-11.1528
-12.3583
-13.5363
-14.519
-15.071
-14.8224
-13.2148
-9.60321
-3.39114
5.64913
16.5446
26.0449
29.1342
-13.5727
-13.664
-13.0055
-12.0492
-11.0647
-10.168
-9.39399
-8.74483
-8.21243
-7.79002
-7.47574
-7.27287
-7.19065
-7.24353
-7.44944
-7.82704
-8.3917
-9.14975
-10.0911
-11.18
-12.3459
-13.4724
-14.3884
-14.8543
-14.469
-12.5883
-8.39524
-1.03094
10.1336
24.7507
39.7703
47.6182
-17.3515
-16.9425
-15.4395
-13.7456
-12.231
-10.9765
-9.96375
-9.15426
-8.51055
-8.0072
-7.63186
-7.38224
-7.26391
-7.2884
-7.47101
-7.8276
-8.37028
-9.10146
-10.0062
-11.043
-12.1338
-13.1525
-13.9129
-14.1524
-13.423
-10.9582
-5.77086
3.2764
17.3288
36.8537
59.7492
76.206
-23.8489
-21.5239
-18.1314
-15.2024
-12.9881
-11.3464
-10.1134
-9.17399
-8.4537
-7.90583
-7.50521
-7.24208
-7.11749
-7.13985
-7.32163
-7.67563
-8.21019
-8.92298
-9.79294
-10.7708
-11.7677
-12.6422
-13.1826
-13.0848
-11.818
-8.48272
-1.91755
9.33375
27.0662
53.1036
87.312
118.745
-36.4005
-27.055
-19.8959
-15.3143
-12.4483
-10.5912
-9.32459
-8.42107
-7.75942
-7.27505
-6.93592
-6.72979
-6.65682
-6.72478
-6.94511
-7.32873
-7.88107
-8.59554
-9.44518
-10.3727
-11.2779
-12.0012
-12.3004
-11.816
-9.91437
-5.61846
2.38477
15.9055
37.6001
71.6487
124.013
188.344
-66.3114
-28.8392
-16.1556
-11.3072
-9.09037
-7.88891
-7.14307
-6.63585
-6.27644
-6.02632
-5.87215
-5.8145
-5.86213
-6.02846
-6.32834
-6.77439
-7.3723
-8.11443
-8.97152
-9.88256
-10.7412
-11.377
-11.5262
-10.7806
-8.47491
-3.62395
5.16113
19.9223
44.0512
84.5157
159.586
316.32
VECTORS velocity double
1.52049e-05 -1.52049e-05 0
-6.69996e-05 9.74094e-05 0
-0.000374145 0.000209736 0
-0.000873155 0.000289274 0
-0.00149948 0.000337047 0
-0.0021981 0.000361579 0
-0.00293048 0.000370805 0
-0.00367138 0.00037009 0
-0.00440373 0.000362258 0
-0.00511416 0.000348172 0
-0.00578972 0.000327388 0
-0.00641583 0.000298731 0
-0.00697534 0.000260772 0
-0.00744835 0.000212246 0
-0.00781302 0.000152421 0
-0.00804686 8.14204e-05 0
-0.00812868 3.96867e-07 0
-0.00804034 -8.87336e-05 0
-0.00776926 -0.00018235 0
-0.0073119 -0.000275012 0
-0.00667676 -0.000360124 0
-0.0058861 -0.000430535 0
-0.00497625 -0.00047932 0
-0.00399621 -0.000500719 0
-0.00300442 -0.000491075 0
-0.00206377 -0.00044957 0
-0.00123563 -0.00037858 0
-0.000573388 -0.000283657 0
-0.000116187 -0.000173544 0
0.000118706 -6.13492e-05 0
0.000149345 3.07099e-05 0
5.93174e-05 5.93172e-05 0
-0.00010145 7.10406e-05 0
-0.000555901 0.000547819 0
-0.00148748 0.000998053 0
-0.00281305 0.00132553 0
-0.00441661 0.00153067 0
-0.00619101 0.00164097 0
-0.00805167 0.00168446 0
-0.00993571 0.00168137 0
-0.0117954 0.00164304 0
-0.0135911 0.00157345 0
-0.0152849 0.00147147 0
-0.0168371 0.00133302 0
-0.0182042 0.00115305 0
-0.0193384 0.000927193 0
-0.0201896 0.000653348 0
-0.0207082 0.000332913 0
-0.0208491 -2.83805e-05 0
-0.0205766 -0.00042079 0
-0.0198699 -0.000828025 0
-0.0187291 -0.00122748 0
-0.0171797 -0.00159224 0
-0.0152754 -0.00189335 0
-0.0130989 -0.00210292 0
-0.0107583 -0.0021977 0
-0.00838142 -0.00216278 0
-0.00610528 -0.00199465 0
-0.00406392 -0.001703 0
-0.00237421 -0.00131118 0
-0.00112082 -0.000856615 0
-0.000339713 -0.000394282 0
2.34955e-06 -9.05917e-06 0
3.64142e-05 0.000155048 0
-0.000233683 0.000406174 0
-0.00108364 0.00151709 0
-0.00261752 0.00249423 0
-0.00467138 0.00320878 0
-0.00708727 0.00366688 0
-0.00972758 0.00391948 0
-0.0124811 0.00402019 0
-0.0152607 0.00400927 0
-0.0179962 0.00391029 0
-0.0206266 0.00373228 0
-0.023094 0.00347381 0
-0.0253385 0.00312741 0
-0.0272964 0.00268364 0
-0.0289004 0.00213479 0
-0.0300815 0.00147812 0
-0.0307734 0.000718641 0
-0.0309177 -0.000128978 0
-0.0304705 -0.00103986 0
-0.02941 -0.00197607 0
-0.0277424 -0.00288784 0
-0.025507 -0.00371678 0
-0.0227796 -0.00440044 0
-0.0196734 -0.00487865 0
-0.0163348 -0.00510104 0
-0.0129362 -0.00503498 0
-0.00966236 -0.00467243 0
-0.00669434 -0.0040346 0
-0.0041898 -0.00317382 0
-0.00226273 -0.00217443 0
-0.000963467 -0.00115684 0
-0.000260171 -0.000291861 0
-2.3924e-05 0.000167538 0
-0.000350001 0.000989858 0
-0.00155717 0.00299054 0
-0.00363646 0.00463396 0
-0.00633264 0.0058191 0
-0.00944175 0.00658155 0
-0.0128007 0.00700407 0
-0.0162805 0.00716897 0
-0.0197785 0.00713807 0
-0.0232096 0.00694804 0
-0.0264981 0.00661344 0
-0.0295708 0.00613278 0
-0.0323532 0.00549524 0
-0.0347667 0.00468726 0
-0.0367299 0.00369838 0
-0.0381608 0.00252658 0
-0.0389815 0.00118278 0
-0.0391246 -0.000305766 0
-0.0385413 -0.00189353 0
-0.0372086 -0.00351553 0
-0.0351357 -0.00508895 0
-0.0323695 -0.00651727 0
-0.0289997 -0.00769717 0
-0.0251594 -0.00852845 0
-0.0210228 -0.00892632 0
-0.0167964 -0.00883479 0
-0.0127038 -0.00823906 0
-0.00896539 -0.00717438 0
-0.00577386 -0.00573011 0
-0.00326907 -0.00405 0
-0.00151629 -0.00233331 0
-0.000491105 -0.000843869 0
-7.57097e-05 6.79044e-05 0
-0.000446698 0.00178656 0
-0.00195949 0.00491381 0
-0.00451409 0.00734458 0
-0.00776951 0.00906007 0
-0.0114748 0.0101549 0
-0.0154421 0.010757 0
-0.0195285 0.0109822 0
-0.0236211 0.0109154 0
-0.0276255 0.0106063 0
-0.0314566 0.0100748 0
-0.0350315 0.00931912 0
-0.0382653 0.008325 0
-0.0410691 0.00707484 0
-0.0433509 0.00555588 0
-0.0450186 0.00376768 0
-0.0459847 0.00172846 0
-0.0461733 -0.000519733 0
-0.0455285 -0.00290771 0
-0.0440214 -0.00534107 0
-0.0416571 -0.00770073 0
-0.0384813 -0.00984742 0
-0.0345877 -0.0116305 0
-0.0301212 -0.0129018 0
-0.0252778 -0.013533 0
-0.0202956 -0.0134367 0
-0.0154393 -0.0125861 0
-0.0109744 -0.0110307 0
-0.00713581 -0.00890383 0
-0.00409656 -0.00642033 0
-0.0019411 -0.00387122 0
-0.000651173 -0.00162107 0
-0.00010683 -0.000114635 0
-0.000526483 0.00275974 0
-0.00229649 0.00722342 0
-0.00525787 0.0105509 0
-0.00899575 0.012847 0
-0.0132156 0.0142931 0
-0.0177064 0.0150771 0
-0.0223135 0.0153555 0
-0.0269171 0.0152382 0
-0.0314181 0.0147888 0
-0.0357265 0.0140318 0
-0.0397541 0.0129646 0
-0.0434098 0.011569 0
-0.0465978 0.00982264 0
-0.0492181 0.00771026 0
-0.0511697 0.00523261 0
-0.0523552 0.00241506 0
-0.0526875 -0.000685427 0
-0.0520986 -0.00397577 0
-0.0505459 -0.00733273 0
-0.0480194 -0.0105999 0
-0.0445519 -0.0135916 0
-0.0402287 -0.0161032 0
-0.0351966 -0.0179276 0
-0.0296675 -0.0188799 0
-0.0239125 -0.018827 0
-0.0182455 -0.017719 0
-0.0129926 -0.0156157 0
-0.00845041 -0.0126995 0
-0.00484256 -0.00927174 0
-0.00228285 -0.00573498 0
-0.000756527 -0.00257356 0
-0.000120777 -0.000342243 0
-0.000592763 0.00387898 0
-0.002579 0.00986042 0
-0.00588684 0.0141832 0
-0.0100402 0.017106 0
-0.0147068 0.0189206 0
-0.0196558 0.0198895 0
-0.0247228 0.0202171 0
-0.0297846 0.0200421 0
-0.0347408 0.0194422 0
-0.0395006 0.0184468 0
-0.0439748 0.0170514 0
-0.0480696 0.0152327 0
-0.0516855 0.0129627 0
-0.0547167 0.0102216 0
-0.0570534 0.0070096 0
-0.0585869 0.00335696 0
-0.0592149 -0.00066702 0
-0.0588498 -0.00494812 0
-0.0574251 -0.00933788 0
-0.0549021 -0.0136442 0
-0.0512841 -0.0176328 0
-0.0466322 -0.0210371 0
-0.0410806 -0.0235774 0
-0.0348477 -0.0249921 0
-0.0282378 -0.0250796 0
-0.0216251 -0.023746 0
-0.0154184 -0.0210484 0
-0.0100067 -0.0172208 0
-0.00569429 -0.0126707 0
-0.00264524 -0.00794479 0
-0.000851092 -0.00368421 0
-0.000127704 -0.000590724 0
-0.000648339 0.00512008 0
-0.00281726 0.0127745 0
-0.00642085 0.0181805 0
-0.0109333 0.0217744 0
-0.0159916 0.0239771 0
-0.0213486 0.0251389 0
-0.0268338 0.0255198 0
-0.0323233 0.0252908 0
-0.0377193 0.0245456 0
-0.0429343 0.0233182 0
-0.0478818 0.0216016 0
-0.0524701 0.0193657 0
-0.0565986 0.0165743 0
-0.0601578 0.0132004 0
-0.06303 0.00923979 0
-0.0650928 0.00472301 0
-0.0662237 -0.000274154 0
-0.0663072 -0.00562256 0
-0.0652398 -0.0111556 0
-0.0629384 -0.0166509 0
-0.0593567 -0.0218257 0
-0.0545095 -0.0263434 0
-0.0484978 -0.0298344 0
-0.0415323 -0.0319334 0
-0.0339443 -0.0323363 0
-0.0261772 -0.0308693 0
-0.0187486 -0.0275604 0
-0.01218 -0.0226892 0
-0.00690331 -0.0167913 0
-0.00317021 -0.0106063 0
-0.000994478 -0.00499262 0
-0.000140878 -0.000859305 0
-0.000695221 0.00646365 0
-0.00301921 0.0159238 0
-0.00687637 0.0224919 0
-0.0117011 0.0268002 0
-0.0171061 0.0294146 0
-0.0228324 0.0307847 0
-0.0287068 0.0312335 0
-0.0346086 0.0309685 0
-0.0404462 0.0301014 0
-0.0461399 0.0286711 0
-0.0516109 0.0266672 0
-0.0567734 0.0240508 0
-0.0615305 0.0207747 0
-0.0657714 0.0168 0
-0.0693712 0.0121121 0
-0.072192 0.00673424 0
-0.0740858 0.000739325 0
-0.0748988 -0.00573955 0
-0.0744775 -0.0125273 0
-0.0726757 -0.0193824 0
-0.0693744 -0.025977 0
-0.0645158 -0.0318979 0
-0.0581418 -0.0366656 0
-0.0504318 -0.0397778 0
-0.0417304 -0.0407814 0
-0.0325513 -0.0393703 0
-0.0235438 -0.0354954 0
-0.0154089 -0.0294577 0
-0.00876989 -0.0219385 0
-0.00402797 -0.0139341 0
-0.00125702 -0.00661151 0
-0.000175426 -0.00117561 0
-0.000734677 0.00789354 0
-0.00319023 0.0192735 0
-0.00726504 0.0270742 0
-0.012362 0.0321396 0
-0.0180756 0.0351938 0
-0.0241395 0.0367957 0
-0.0303813 0.0373387 0
-0.0366874 0.0370713 0
-0.0429767 0.0361255 0
-0.0491823 0.0345463 0
-0.0552385 0.0323191 0
-0.0610712 0.0293942 0
-0.0665919 0.0257091 0
-0.0716923 0.021207 0
-0.0762417 0.0158543 0
-0.0800846 0.00965575 0
-0.0830411 0.00266809 0
-0.0849092 -0.00498712 0
-0.0854711 -0.0131392 0
-0.0844992 -0.0215442 0
-0.0817785 -0.0298372 0
-0.0771507 -0.0375241 0
-0.070568 -0.0439961 0
-0.0621489 -0.0485764 0
-0.0522257 -0.0506073 0
-0.04137 -0.0495791 0
-0.0303732 -0.0452908 0
-0.0201606 -0.0380098 0
-0.0116249 -0.0285611 0
-0.0054087 -0.0182696 0
-0.0017166 -0.00873899 0
-0.000247641 -0.00159868 0
-0.000767346 0.00939557 0
-0.00333327 0.0227929 0
-0.00759356 0.0318898 0
-0.0129269 0.0377543 0
-0.0189142 0.0412801 0
-0.0252859 0.0431449 0
-0.0318741 0.0438195 0
-0.0385761 0.0435985 0
-0.045326 0.0426376 0
-0.0520751 0.0409891 0
-0.0587769 0.0386342 0
-0.0653754 0.0355103 0
-0.0717965 0.0315347 0
-0.0779392 0.0266245 0
-0.0836686 0.0207156 0
-0.0888099 0.0137787 0
-0.0931447 0.00583637 0
-0.0964107 -0.00302121 0
-0.0983126 -0.0126413 0
-0.098528 -0.0227986 0
-0.0967265 -0.033105 0
-0.0926248 -0.0429858 0
-0.0860551 -0.0516867 0
-0.0770399 -0.0583202 0
-0.0658621 -0.0619644 0
-0.0531191 -0.0618207 0
-0.0397328 -0.0574323 0
-0.02688 -0.0489337 0
-0.0158046 -0.0372484 0
-0.00751254 -0.0240906 0
-0.0024555 -0.0116671 0
-0.000374337 -0.00222065 0
-0.000793386 0.0109563 0
-0.00344938 0.0264541 0
-0.0078645 0.0369041 0
-0.0133992 0.0436081 0
-0.0196253 0.0476397 0
-0.0262724 0.0498041 0
-0.0331805 0.0506567 0
-0.0402614 0.050544 0
-0.047469 0.0496496 0
-0.0547784 0.0480356 0
-0.0621684 0.0456795 0
-0.0696082 0.0425034 0
-0.0770443 0.0383988 0
-0.0843879 0.0332467 0
-0.0915023 0.0269372 0
-0.0981918 0.0193879 0
-0.104194 0.0105639 0
-0.109177 0.000500378 0
-0.112755 -0.0106826 0
-0.114503 -0.0227939 0
-0.113969 -0.0354454 0
-0.110727 -0.0479887 0
-0.104466 -0.0595149 0
-0.0950746 -0.0688986 0
-0.0827392 -0.0748992 0
-0.0680287 -0.0763395 0
-0.0519508 -0.0723777 0
-0.0359281 -0.0628638 0
-0.0216195 -0.0487023 0
-0.0105395 -0.0320088 0
-0.00355844 -0.0157871 0
-0.000572671 -0.00316766 0
-0.000812689 0.0125624 0
-0.00353843 0.0302298 0
-0.00807776 0.0420829 0
-0.013778 0.0496642 0
-0.020204 0.0542356 0
-0.0270872 0.0567385 0
-0.0342773 0.0578206 0
-0.0417033 0.057887 0
-0.0493429 0.0571539 0
-0.0571994 0.0556972 0
-0.0652832 0.0534917 0
-0.0735944 0.0504422 0
-0.0821061 0.0464078 0
-0.0907465 0.0412215 0
-0.0993798 0.0347101 0
-0.10779 0.0267147 0
-0.115668 0.0171172 0
-0.122611 0.00587276 0
-0.128133 -0.00695442 0
-0.131705 -0.0212022 0
-0.132761 -0.0365153 0
-0.130733 -0.0521881 0
-0.125148 -0.0671616 0
-0.115731 -0.0800604 0
-0.102516 -0.0892882 0
-0.0859675 -0.0932094 0
-0.0670978 -0.0904555 0
-0.0475177 -0.0803889 0
-0.0293237 -0.0636798 0
-0.0146819 -0.0427531 0
-0.00511384 -0.0215918 0
-0.000861079 -0.00460141 0
-0.000825154 0.0142002 0
-0.00360026 0.0340928 0
-0.00823274 0.0473917 0
-0.0140603 0.0558831 0
-0.020642 0.0610245 0
-0.0277114 0.0639021 0
-0.0351285 0.0652643 0
-0.0428412 0.0655819 0
-0.0508528 0.0651102 0
-0.0591984 0.063943 0
-0.0679231 0.0620544 0
-0.0770624 0.05933 0
-0.0866205 0.0555898 0
-0.0965466 0.050606 0
-0.10671 0.0441228 0
-0.116879 0.0358811 0
-0.126704 0.0256531 0
-0.135713 0.0132888 0
-0.143331 -0.00123001 0
-0.148928 -0.0177578 0
-0.15184 -0.035992 0
-0.151375 -0.0552036 0
-0.146901 -0.0742052 0
-0.137951 -0.0913841 0
-0.12435 -0.10478 0
-0.106371 -0.112245 0
-0.0849107 -0.111751 0
-0.0616519 -0.101933 0
-0.0390796 -0.0829024 0
-0.0201176 -0.0571342 0
-0.0072179 -0.0296785 0
-0.00126144 -0.00672393 0
-0.000831053 0.0158564 0
-0.00363601 0.0380167 0
-0.00833114 0.0527954 0
-0.014246 0.0622217 0
-0.0209329 0.0679547 0
-0.0281258 0.0712341 0
-0.0356943 0.0729179 0
-0.0436041 0.0735506 0
-0.0518843 0.0734333 0
-0.0606014 0.0726826 0
-0.0698364 0.0712744 0
-0.079661 0.0690739 0
-0.0901125 0.0658555 0
-0.101165 0.0613189 0
-0.1127 0.0551086 0
-0.124479 0.0468434 0
-0.136127 0.0361629 0
-0.147127 0.022789 0
-0.15684 0.00660055 0
-0.164539 -0.0122928 0
-0.169482 -0.033602 0
-0.170901 -0.0566394 0
-0.168013 -0.0801309 0
-0.160154 -0.102269 0
-0.146891 -0.120759 0
-0.128206 -0.13293 0
-0.104735 -0.135997 0
-0.0780599 -0.127621 0
-0.0509118 -0.106935 0
-0.0269937 -0.0759821 0
-0.00997669 -0.0407474 0
-0.00180145 -0.00978682 0
-0.000831463 0.0175189 0
-0.00364984 0.0419775 0
-0.00838035 0.0582602 0
-0.0143428 0.0686342 0
-0.0210792 0.0749657 0
-0.0283202 0.0786571 0
-0.0359418 0.0806851 0
-0.0439246 0.081676 0
-0.0523202 0.0819837 0
-0.0612235 0.0817527 0
-0.0707475 0.0809634 0
-0.0809979 0.07946 0
-0.0920444 0.0769674 0
-0.103889 0.0731043 0
-0.116435 0.0674036 0
-0.129455 0.0593477 0
-0.142575 0.048427 0
-0.155268 0.0342183 0
-0.166865 0.0164802 0
-0.176586 -0.0047525 0
-0.183636 -0.0291491 0
-0.187193 -0.0561168 0
-0.186373 -0.0843601 0
-0.180321 -0.111951 0
-0.16832 -0.13634 0
-0.149971 -0.154382 0
-0.125492 -0.162495 0
-0.0961354 -0.157154 0
-0.0646452 -0.136039 0
-0.0353922 -0.100049 0
-0.0135 -0.0555899 0
-0.00251566 -0.0141039 0
-0.000828781 0.0191792 0
-0.00365087 0.0459577 0
-0.00839741 0.0637571 0
-0.0143722 0.0750745 0
-0.0211002 0.0819897 0
-0.0283033 0.0860772 0
-0.0358585 0.0884418 0
-0.0437563 0.0897998 0
-0.0520647 0.0905639 0
-0.0609001 0.0909112 0
-0.0704008 0.0908295 0
-0.0806998 0.0901432 0
-0.0918961 0.0885269 0
-0.104023 0.0855163 0
-0.117015 0.0805296 0
-0.130683 0.0729093 0
-0.144687 0.0619904 0
-0.158535 0.0471958 0
-0.171584 0.0281475 0
-0.183064 0.00478173 0
-0.192142 -0.022555 0
-0.197973 -0.0533231 0
-0.199641 -0.0863051 0
-0.196139 -0.119561 0
-0.186458 -0.150412 0
-0.169757 -0.175361 0
-0.145678 -0.190075 0
-0.114896 -0.189712 0
-0.0798397 -0.170028 0
-0.0452794 -0.129873 0
-0.0178844 -0.075053 0
-0.00344494 -0.0200645 0
-0.000827335 0.0208353 0
-0.00365552 0.0499518 0
-0.00841349 0.0692674 0
-0.0143761 0.0815017 0
-0.021041 0.0889554 0
-0.0281136 0.0933871 0
-0.0354659 0.0960395 0
-0.0430918 0.0977258 0
-0.0510681 0.0989227 0
-0.0595236 0.0998434 0
-0.0686116 0.100486 0
-0.0784839 0.100658 0
-0.0892635 0.099988 0
-0.101016 0.0979344 0
-0.113721 0.0938093 0
-0.127248 0.0868239 0
-0.141334 0.0761664 0
-0.155573 0.061107 0
-0.169412 0.0411229 0
-0.182153 0.0160285 0
-0.192971 -0.0139054 0
-0.201044 -0.0480696 0
-0.205489 -0.0854444 0
-0.205209 -0.124204 0
-0.198941 -0.161717 0
-0.18537 -0.194329 0
-0.16344 -0.217116 0
-0.132992 -0.223901 0
-0.0957493 -0.208138 0
-0.0564543 -0.165618 0
-0.0231908 -0.0999664 0
-0.00463597 -0.0281454 0
-0.000834145 0.0224968 0
-0.00369028 0.0539747 0
-0.00847897 0.0747912 0
-0.0144238 0.0878853 0
-0.0209803 0.095793 0
-0.0278293 0.100471 0
-0.0348322 0.103311 0
-0.0419799 0.105228 0
-0.0493506 0.106767 0
-0.0570758 0.108179 0
-0.0653136 0.109476 0
-0.0742244 0.110452 0
-0.0839485 0.110698 0
-0.094583 0.109611 0
-0.106161 0.106415 0
-0.118629 0.100213 0
-0.131833 0.0900675 0
-0.1455 0.0751116 0
-0.159223 0.0546795 0
-0.172452 0.0284436 0
-0.184498 -0.00345663 0
-0.194597 -0.0403476 0
-0.201904 -0.0814134 0
-0.20534 -0.125079 0
-0.203472 -0.168977 0
-0.194538 -0.209575 0
-0.176711 -0.241627 0
-0.148773 -0.257775 0
-0.111328 -0.248952 0
-0.0685163 -0.206911 0
-0.0294272 -0.131026 0
-0.00614322 -0.0389246 0
-0.000859959 0.0241909 0
-0.00379522 0.058072 0
-0.00866947 0.0803569 0
-0.014619 0.0942141 0
-0.0210384 0.10244 0
-0.0275763 0.107211 0
-0.0340801 0.110078 0
-0.0405352 0.112064 0
-0.0470159 0.113783 0
-0.0536492 0.115523 0
-0.0605889 0.11731 0
-0.0679953 0.118935 0
-0.0760188 0.119963 0
-0.0847847 0.119747 0
-0.0943806 0.117453 0
-0.104843 0.112107 0
-0.116145 0.10268 0
-0.128181 0.0882008 0
-0.140746 0.0678778 0
-0.153513 0.0412425 0
-0.166007 0.00828458 0
-0.177589 -0.0304081 0
-0.187531 -0.0741044 0
-0.194873 -0.12161 0
-0.198128 -0.171059 0
-0.195175 -0.21938 0
-0.183417 -0.261406 0
-0.160423 -0.288929 0
-0.125281 -0.290385 0
-0.0808623 -0.252708 0
-0.03654 -0.168641 0
-0.00803299 -0.0531008 0
-0.000920861 0.0259717 0
-0.00402915 0.0623347 0
-0.00909347 0.0860327 0
-0.0151079 0.100502 0
-0.021383 0.108847 0
-0.0275312 0.113491 0
-0.0333887 0.116159 0
-0.0389384 0.117987 0
-0.0442509 0.119653 0
-0.0494463 0.121481 0
-0.0546692 0.123514 0
-0.0600737 0.125542 0
-0.0658142 0.12712 0
-0.0720393 0.127581 0
-0.0788874 0.126063 0
-0.0864825 0.121554 0
-0.0949278 0.11298 0
-0.104295 0.0993043 0
-0.11461 0.0796532 0
-0.125818 0.0534426 0
-0.13774 0.0205006 0
-0.149974 -0.0188079 0
-0.161989 -0.0637482 0
-0.17303 -0.113583 0
-0.181699 -0.167162 0
-0.185679 -0.222251 0
-0.181714 -0.274259 0
-0.16612 -0.314666 0
-0.136155 -0.329754 0
-0.092704 -0.301209 0
-0.0444098 -0.212756 0
-0.0103841 -0.0715179 0
-0.00104102 0.0279336 0
-0.00447759 0.0669177 0
-0.00990286 0.0919393 0
-0.0160875 0.106795 0
-0.0222328 0.114974 0
-0.0279189 0.119197 0
-0.0329844 0.121376 0
-0.0374218 0.122758 0
-0.0413064 0.12408 0
-0.0447548 0.125698 0
-0.0479031 0.127668 0
-0.0508979 0.129787 0
-0.0538941 0.131611 0
-0.057058 0.132478 0
-0.060571 0.131527 0
-0.0646333 0.127748 0
-0.0694648 0.120063 0
-0.0753006 0.107424 0
-0.0823809 0.0889276 0
-0.0909301 0.0639256 0
-0.10111 0.0321192 0
-0.112929 -0.00637325 0
-0.126142 -0.0509553 0
-0.14021 -0.101266 0
-0.153996 -0.157023 0
-0.165224 -0.217182 0
-0.170227 -0.27829 0
-0.164203 -0.332252 0
-0.142419 -0.363916 0
-0.103084 -0.349833 0
-0.0528339 -0.262677 0
-0.0132773 -0.0951792 0
-0.00125769 0.0302323 0
-0.00526615 0.072064 0
-0.0113079 0.09826 0
-0.0178141 0.113165 0
-0.0238548 0.12079 0
-0.0289987 0.124211 0
-0.0331164 0.125545 0
-0.0362351 0.126144 0
-0.038452 0.126794 0
-0.039891 0.127871 0
-0.0406861 0.129439 0
-0.0409788 0.131303 0
-0.0409249 0.133037 0
-0.0407046 0.133997 0
-0.0405333 0.13335 0
-0.0406724 0.130126 0
-0.041437 0.123282 0
-0.0431954 0.1118 0
-0.0463683 0.094805 0
-0.0514231 0.0716521 0
-0.0588462 0.0419952 0
-0.069066 0.00578986 0
-0.0822404 -0.0367313 0
-0.0981655 -0.0854968 0
-0.116068 -0.141103 0
-0.133989 -0.203953 0
-0.148246 -0.27226 0
-0.153299 -0.339253 0
-0.142509 -0.389489 0
-0.110858 -0.395245 0
-0.0614766 -0.316897 0
-0.0167681 -0.125225 0
-0.00163058 0.0331206 0
-0.00658297 0.0781366 0
-0.013598 0.105244 0
-0.0206077 0.119696 0
-0.0265482 0.12624 0
-0.031028 0.128385 0
-0.0340037 0.128465 0
-0.0355772 0.127917 0
-0.0358943 0.127555 0
-0.0351027 0.127757 0
-0.0333438 0.128589 0
-0.0307603 0.129863 0
-0.027511 0.131174 0
-0.0237882 0.131916 0
-0.0198333 0.131304 0
-0.0159542 0.128431 0
-0.0125402 0.122327 0
-0.0100612 0.112035 0
-0.00907357 0.0967557 0
-0.0102227 0.0759053 0
-0.0142262 0.0491686 0
-0.0218358 0.0164459 0
-0.0336549 -0.0223938 0
-0.0498904 -0.0676737 0
-0.0702038 -0.12071 0
-0.0932325 -0.183397 0
-0.115823 -0.25597 0
-0.132371 -0.333942 0
-0.134805 -0.403156 0
-0.114599 -0.433436 0
-0.0697623 -0.372924 0
-0.0208377 -0.16283 0
-0.0022594 0.0370105 0
-0.00871524 0.0856549 0
-0.0171637 0.11319 0
-0.0248386 0.126436 0
-0.030591 0.131194 0
-0.0341746 0.131495 0
-0.035719 0.129875 0
-0.035458 0.12782 0
-0.0336186 0.12613 0
-0.0303906 0.125163 0
-0.0259326 0.124967 0
-0.0203933 0.125362 0
-0.0139358 0.125969 0
-0.00676266 0.126226 0
0.00086592 0.125411 0
0.00860636 0.122705 0
0.0160099 0.117235 0
0.0225126 0.108145 0
0.0274452 0.0947259 0
0.0300547 0.0764748 0
0.0295286 0.0531286 0
0.0250324 0.0245917 0
0.0157133 -0.00940135 0
0.000922238 -0.0496396 0
-0.0195336 -0.0979746 0
-0.0450776 -0.157559 0
-0.0736854 -0.230609 0
-0.100667 -0.315773 0
-0.117495 -0.402062 0
-0.112391 -0.459841 0
-0.0766789 -0.427068 0
-0.0253113 -0.208979 0
-0.00331563 0.0425856 0
-0.0121015 0.0953216 0
-0.0224982 0.122368 0
-0.0308461 0.13328 0
-0.0360827 0.135338 0
-0.0382995 0.133151 0
-0.0379267 0.129391 0
-0.0353993 0.125515 0
-0.0310581 0.122254 0
-0.0251484 0.119901 0
-0.01785 0.118472 0
-0.00931543 0.117783 0
0.000296368 0.117478 0
0.0107872 0.117052 0
0.0218789 0.115865 0
0.0331894 0.1132 0
0.0442213 0.108304 0
0.0543503 0.100444 0
0.0628366 0.0890077 0
0.0688573 0.0735629 0
0.0715486 0.0538753 0
0.0700574 0.0298323 0
0.0635768 0.00115779 0
0.0513936 -0.0332245 0
0.0330451 -0.0755853 0
0.00822047 -0.12958 0
-0.0228538 -0.198906 0
-0.0575178 -0.28583 0
-0.0883544 -0.384339 0
-0.10148 -0.469543 0
-0.0804337 -0.474123 0
-0.0297174 -0.264008 0
-0.00509428 0.0509955 0
-0.0173775 0.107981 0
-0.0300885 0.132816 0
-0.0386484 0.139739 0
-0.0425074 0.137974 0
-0.042413 0.132637 0
-0.0392589 0.126377 0
-0.033747 0.120489 0
-0.0263508 0.115543 0
-0.0173708 0.111723 0
-0.00699859 0.10898 0
0.00462614 0.107116 0
0.0173607 0.105799 0
0.0310125 0.104589 0
0.0453025 0.102946 0
0.0598409 0.10027 0
0.0741134 0.0959306 0
0.0874764 0.0893255 0
0.0991731 0.0799429 0
0.108371 0.0674092 0
0.114215 0.0514933 0
0.115894 0.032027 0
0.112678 0.00865901 0
0.103855 -0.0197189 0
0.088702 -0.0555896 0
0.0664357 -0.102485 0
0.0362667 -0.164758 0
-0.00197255 -0.247075 0
-0.044461 -0.349769 0
-0.0777712 -0.457677 0
-0.077871 -0.506935 0
-0.0330288 -0.326754 0
-0.00806871 0.0641585 0
-0.0252771 0.124309 0
-0.0398781 0.1438 0
-0.0470108 0.144449 0
-0.0475278 0.137641 0
-0.0432862 0.128635 0
-0.0357961 0.119735 0
-0.0260515 0.111875 0
-0.0146376 0.105347 0
-0.00187954 0.10018 0
0.0120462 0.0962242 0
0.027032 0.0932604 0
0.0429673 0.0909847 0
0.0596932 0.0890255 0
0.0769656 0.0869471 0
0.0944287 0.0842674 0
0.111602 0.0804873 0
0.12788 0.0751279 0
0.14255 0.0677733 0
0.154833 0.0580989 0
0.163929 0.0458625 0
0.169082 0.0308263 0
0.1696 0.0125575 0
0.164795 -0.00998882 0
0.153761 -0.0391332 0
0.135192 -0.0781054 0
0.107351 -0.131128 0
0.0683662 -0.203481 0
0.0180439 -0.300553 0
-0.0352236 -0.420316 0
-0.0634992 -0.515921 0
-0.0331635 -0.392947 0
-0.0127793 0.0850065 0
-0.0357409 0.143631 0
-0.0491938 0.152532 0
-0.0505627 0.144218 0
-0.0436513 0.131477 0
-0.0318763 0.118782 0
-0.0173622 0.107584 0
-0.0012861 0.0982058 0