# vtk DataFile Version 2.0
Lid-driven cavity
ASCII
DATASET STRUCTURED_POINTS
DIMENSIONS 32 32 1
ORIGIN 0.015625 0.015625 0
SPACING 0.03125 0.03125 1
POINT_DATA 1024
SCALARS pressure double 1
LOOKUP_TABLE default
43.3582
43.1706
42.8386
42.4675
42.1216
41.833
41.6181
41.4882
41.4564
41.5386
41.7528
42.1162
42.641
43.331
44.1775
45.1562
46.2263
47.3315
48.3984
49.3439
50.0851
50.5526
50.7023
50.5258
50.0553
49.3607
48.5395
47.7033
46.9634
46.4162
46.1311
46.1177
43.5457
43.3499
43.0726
42.7746
42.496
42.26
42.0807
41.9698
41.9405
42.0083
42.1902
42.5023
42.9566
43.5575
44.2985
45.1593
46.1037
47.0832
48.031
48.8717
49.5299
49.9429
50.0719
49.9118
49.4946
48.8864
48.1765
47.4605
46.8309
46.3628
46.1106
46.1042
43.8901
43.6105
43.323
43.051
42.8085
42.603
42.4408
42.3299
42.2825
42.3142
42.4429
42.6867
43.0605
43.573
44.2225
44.9941
45.857
46.7663
47.6579
48.4573
49.0889
49.4883
49.6149
49.4623
49.0621
48.4803
47.8049
47.1294
46.5359
46.0904
45.8403
45.823
44.2729
43.8734
43.5394
43.261
43.0265
42.8264
42.6565
42.5201
42.4276
42.3957
42.445
42.5981
42.8756
43.2929
43.8558
44.5562
45.3693
46.2509
47.1375
47.9514
48.6113
49.0449
49.2034
49.0737
48.6836
48.099
47.4111
46.7168
46.1004
45.6245
45.3342
45.2648
44.5828
44.0505
43.6521
43.3456
43.0943
42.8719
42.6645
42.4703
42.2989
42.1688
42.1053
42.1373
42.2935
42.5985
43.0674
43.7013
44.4827
45.3676
46.2928
47.1759
47.9259
48.4572
48.7054
48.6431
48.2879
47.7021
46.9802
46.2277
45.5386
44.9827
44.6076
44.4483
44.713
44.047
43.577
43.2271
42.9362
42.6624
42.3831
42.093
41.8015
41.5305
41.3111
41.1805
41.1777
41.3385
41.6896
42.2437
42.9937
43.8995
44.9002
45.909
46.8228
47.5367
47.9627
48.0483
47.7902
47.239
46.4889
45.6569
44.8553
44.1724
43.6682
43.3855
44.5572
43.7638
43.2203
42.8148
42.4619
42.1057
41.7163
41.2859
40.8252
40.3604
39.9298
39.5804
39.3631
39.3275
39.5149
39.9526
40.6477
41.5733
42.676
43.867
45.03
46.0362
46.7639
47.1218
47.0702
46.6329
45.8954
44.9855
44.0425
43.1875
42.5088
42.0692
44.0101
43.1
42.4834
42.0107
41.5727
41.1005
40.5583
39.9367
39.2487
38.5252
37.8126
37.1689
36.6591
36.3491
36.2986
36.5538
37.1405
38.0574
39.2698
40.6922
42.1971
43.6279
44.8194
45.6251
45.9472
45.761
45.1256
44.1733
43.0775
42.0105
41.1105
40.4733
42.9708
41.9583
41.2694
40.7169
40.1687
39.5436
38.8008
37.9301
36.9461
35.8851
34.8019
33.7665
32.8598
32.1672
31.7714
31.743
32.1318
32.9739
34.2734
35.9573
37.8925
39.894
41.7452
43.2271
44.1581
44.4338
44.058
43.1503
41.9195
40.6095
39.4364
38.5537
41.3485
40.2508
39.4903
38.8436
38.1571
37.3388
36.3427
35.1572
33.7985
32.3073
30.7465
29.199
27.7634
26.5485
25.6648
25.2141
25.2774
25.932
27.2531
29.1937
31.6252
34.3401
37.0665
39.4988
41.3435
42.3778
42.5077
41.8056
40.5055
38.9403
37.4416
36.2544
39.0699
37.9068
37.0746
36.3174
35.4624
34.4074
33.1012
31.5296
29.7091
27.6834
25.5229
23.3233
21.203
19.2973
17.7505
16.7037
16.2802
16.5845
17.8075
19.9479
22.8978
26.4389
30.2496
33.93
37.051
39.2286
40.2142
39.9782
38.7462
36.9481
35.0749
33.5124
36.0865
34.88
33.9759
33.0911
32.0364
30.7003
29.0258
26.9948
24.6218
21.9519
19.0615
16.0589
13.083
10.299
7.88999
6.04377
4.93502
4.70401
5.64682
7.86522
11.2891
15.7088
20.7688
25.9806
30.7666
34.5426
36.8404
37.4492
36.522
34.5692
32.2852
30.2659
32.3814
31.1551
30.1794
29.1508
27.8671
26.2085
24.1113
21.5519
18.5406
15.1214
11.3751
7.42123
3.41966
-0.432826
-3.91033
-6.77235
-8.78529
-9.75095
-9.31935
-7.21151
-3.4399
1.8201
8.20696
15.1669
21.9799
27.838
31.99
33.9458
33.6828
31.7354
29.0311
26.4659
27.9736
26.7522
25.7072
24.5224
22.9864
20.972
18.4086
15.2651
11.5453
7.28997
2.58137
-2.45091
-7.6271
-12.7183
-17.4537
-21.5361
-24.6656
-26.5738
-26.9002
-25.1448
-21.2362
-15.2856
-7.62193
1.17766
10.2838
18.6687
25.2523
29.1609
30.0557
28.3823
25.2935
22.0901
22.919
21.7275
20.6193
19.2733
17.4728
15.0847
12.0307
8.27105
3.80102
-1.34477
-7.08449
-13.2811
-19.7367
-26.1914
-32.3303
-37.798
-42.2246
-45.2605
-46.5659
-45.4337
-41.6689
-35.2916
-26.5542
-15.9992
-4.50321
6.72846
16.2776
22.7975
25.4668
24.4637
21.094
17.1634
17.3083
16.171
15.0111
13.5102
11.45
8.6926
5.1519
0.77813
-4.44379
-10.4873
-17.2736
-24.6607
-32.435
-40.309
-47.9262
-54.8765
-60.7227
-65.0373
-67.4485
-67.203
-63.9004
-57.4518
-47.995
-35.9712
-22.2174
-8.03052
4.87698
14.6377
19.7812
19.9775
16.5202
11.7846
11.2597
10.1991
9.00599
7.37185
5.07946
1.98678
-2.00064
-6.94369
-12.8693
-19.7608
-27.5443
-36.0754
-45.1279
-54.3904
-63.4699
-71.9078
-79.207
-84.871
-88.4541
-89.2803
-86.7395
-80.6171
-70.909
-57.8928
-42.2651
-25.2899
-8.86773
4.63428
12.9648
15.0054
11.7616
6.1628
4.90862
3.94341
2.7442
1.01747
-1.4515
-4.80981
-9.1617
-14.5807
-21.107
-28.7354
-37.3987
-46.9517
-57.1587
-67.6881
-78.1166
-87.945
-96.6269
-103.607
-108.371
-110.336
-108.778
-103.355
-93.9075
-80.5056
-63.6094
-44.3035
-24.5108
-6.99196
5.16429
9.77045
7.15832
0.667582
-1.60568
-2.46239
-3.63163
-5.38788
-7.94499
-11.4589
-16.0471
-21.7988
-28.7691
-36.9656
-46.3287
-56.7139
-67.8781
-79.4733
-91.0515
-102.082
-111.98
-120.149
-126.022
-129.077
-128.598
-124.154
-115.432
-102.281
-84.8532
-63.9109
-41.1958
-19.6678
-3.20272
4.71391
3.27061
-4.09821
-8.15508
-8.89853
-9.99194
-11.6889
-14.2084
-17.724
-22.3741
-28.2679
-35.4788
-44.0278
-53.8633
-64.8419
-76.7143
-89.1192
-101.589
-113.568
-124.446
-133.6
-140.439
-144.438
-145.003
-141.668
-134.002
-121.645
-104.418
-82.6455
-57.6809
-32.4219
-11.3608
0.592782
0.977633
-7.18934
-14.6383
-15.275
-16.2359
-17.7545
-20.0687
-23.386
-27.8788
-33.6846
-40.8982
-49.5548
-59.6099
-70.9199
-83.2296
-96.1661
-109.246
-121.895
-133.486
-143.382
-150.981
-155.754
-157.219
-154.948
-148.469
-137.246
-120.786
-98.9242
-72.4464
-43.899
-18.1109
-1.40671
1.61664
-7.15361
-20.9974
-21.5483
-22.3056
-23.4894
-25.3822
-28.2535
-32.33
-37.7887
-44.7501
-53.2627
-63.2848
-74.6696
-87.1551
-100.358
-113.782
-126.84
-138.893
-149.294
-157.442
-162.811
-164.974
-163.584
-158.2
-148.172
-132.748
-111.281
-83.8713
-52.4411
-21.8042
0.450359
7.16954
-1.79302
-27.2364
-27.7395
-28.1992
-28.8413
-30.0388
-32.1674
-35.5364
-40.3748
-46.833
-54.9674
-64.7377
-75.991
-88.4504
-101.717
-115.279
-128.539
-140.847
-151.554
-160.059
-165.846
-168.497
-167.718
-163.131
-154.071
-139.577
-118.57
-90.431
-56.2256
-20.3699
8.5528
20.4921
12.161
-33.4488
-33.9593
-33.9838
-33.8029
-33.9591
-34.9999
-37.351
-41.3148
-47.0632
-54.6536
-64.0313
-75.0229
-87.3305
-100.535
-114.107
-127.436
-139.864
-150.74
-159.46
-165.512
-168.482
-168.03
-163.758
-155.108
-141.054
-120.073
-90.8507
-53.4171
-11.3972
26.0045
45.5613
39.4562
-39.8703
-40.4501
-39.8127
-38.4095
-37.0848
-36.6481
-37.6782
-40.5373
-45.4133
-52.3475
-61.2545
-71.9263
-84.033
-97.128
-110.662
-124.01
-136.506
-147.492
-156.358
-162.583
-165.738
-165.44
-161.148
-152.167
-137.425
-115.443
-84.1465
-42.2734
7.74872
56.6076
87.6931
86.7938
-46.9934
-47.6683
-45.9551
-42.7352
-39.3632
-37.0087
-36.4271
-38.0061
-41.9207
-48.1676
-56.6069
-66.9793
-78.9113
-91.9228
-105.441
-118.825
-131.399
-142.494
-151.486
-157.827
-161.047
-160.728
-156.141
-146.327
-129.959
-105.121
-69.5486
-21.1477
39.8198
104.733
153.656
163.348
-55.8409
-56.4556
-52.8505
-46.8886
-40.7366
-35.9923
-33.5547
-33.7643
-36.7242
-42.3432
-50.3986
-60.5619
-72.4062
-85.4129
-98.9836
-112.461
-125.157
-136.388
-145.508
-151.924
-155.1
-154.524
-149.39
-138.234
-119.302
-90.0829
-47.4347
11.5931
87.6233
175.032
251.566
281.32
-68.6329
-68.3819
-61.18
-50.9798
-41.1053
-33.5107
-29.0651
-27.9336
-30.0536
-35.192
-43.0144
-53.1082
-64.9871
-78.0921
-91.799
-105.435
-118.299
-129.691
-138.933
-145.374
-148.385
-147.303
-141.306
-128.257
-105.783
-70.5737
-18.316
55.5398
153.664
271.877
390.307
456.538
-90.4612
-86.3024
-71.7851
-54.8971
-40.1497
-29.3512
-22.9132
-20.6229
-22.1372
-27.0241
-34.8141
-45.0045
-57.0495
-70.3525
-84.2671
-98.1065
-111.16
-122.708
-132.038
-138.434
-141.151
-139.352
-131.995
-116.499
-89.5212
-46.7822
17.4778
109.988
236.782
398.556
577.865
709.034
-133.468
-114.391
-84.4935
-57.27
-36.6535
-22.6645
-14.5746
-11.5775
-12.9101
-17.8977
-25.9303
-36.422
-48.7788
-62.3771
-76.5572
-90.6259
-103.866
-115.544
-124.91
-131.18
-133.482
-130.769
-121.662
-103.144
-70.9442
-19.7356
57.8629
171.373
332.081
550.63
822.596
1062.61
-225.6
-152.034
-92.4308
-51.8509
-25.8741
-10.2136
-2.03352
0.442813
-1.61163
-7.34825
-16.0819
-27.1956
-40.0851
-54.1282
-68.6719
-83.0316
-96.4942
-108.319
-117.729
-123.874
-125.762
-122.125
-111.21
-89.5132
-52.3427
6.54144
95.9788
228.495
422.624
708.209
1129.19
1635.8
-454.192
-163.688
-61.2282
-18.4281
2.66337
13.3739
17.6271
17.1174
12.7851
5.28638
-4.82965
-17.041
-30.8115
-45.57
-60.7035
-75.5572
-89.4386
-101.615
-111.3
-117.608
-119.472
-115.479
-103.548
-80.175
-40.5825
21.8622
116.679
258.226
470.993
807.106
1407.43
2640.35
VECTORS velocity double
8.33113e-05 -8.33113e-05 0
0.000170188 -3.56594e-06 0
3.63602e-05 0.000137394 0
-0.000367596 0.000266562 0
-0.00100011 0.000365954 0
-0.00180474 0.000438673 0
-0.00273567 0.000492255 0
-0.00375987 0.000531947 0
-0.00485087 0.000559049 0
-0.00598142 0.000571499 0
-0.00711808 0.000565165 0
-0.00821841 0.000535166 0
-0.00923057 0.000476999 0
-0.0100951 0.000387488 0
-0.0107482 0.00026562 0
-0.0111271 0.000113265 0
-0.011176 -6.43442e-05 0
-0.010853 -0.000258621 0
-0.0101389 -0.000455471 0
-0.00904642 -0.00063703 0
-0.00762586 -0.000783529 0
-0.00596641 -0.00087592 0
-0.00419135 -0.000899138 0
-0.00244673 -0.000845485 0
-0.000883898 -0.000717349 0
0.00036185 -0.000528399 0
0.0011931 -0.000302853 0
0.00156723 -7.1273e-05 0
0.00150737 0.000131134 0
0.00111082 0.000265413 0
0.000560924 0.000284481 0
0.000138221 0.000138221 0
2.4789e-08 -0.000166647 0
-0.000248351 0.000241268 0
-0.0010558 0.000833833 0
-0.00245857 0.00137685 0
-0.00437569 0.0018053 0
-0.00669692 0.00212518 0
-0.00931994 0.0023597 0
-0.0121565 0.00252523 0
-0.0151242 0.00262456 0
-0.0181363 0.00264861 0
-0.0210929 0.00258128 0
-0.0238781 0.00240458 0
-0.0263614 0.00210311 0
-0.0284034 0.00166782 0
-0.029864 0.001099 0
-0.030614 0.000408786 0
-0.0305476 -0.000377348 0
-0.0295967 -0.0012195 0
-0.0277453 -0.00206004 0
-0.0250419 -0.00282841 0
-0.0216068 -0.00344778 0
-0.0176335 -0.00384444 0
-0.0133798 -0.00395934 0
-0.00914928 -0.00376045 0
-0.00526094 -0.00325356 0
-0.00201053 -0.00248835 0
0.000372922 -0.00155761 0
0.00176991 -0.000587625 0
0.00220177 0.000275486 0
0.00184672 0.000872657 0
0.0010434 0.00103045 0
0.000290955 0.000567398 0
-0.000181215 1.45432e-05 0
-0.00100616 0.0011334 0
-0.00274598 0.00248896 0
-0.00532603 0.00370456 0
-0.0086024 0.00467109 0
-0.0124201 0.00539837 0
-0.0166362 0.00592555 0
-0.0211188 0.00627856 0
-0.0257377 0.00645784 0
-0.0303525 0.00644227 0
-0.0348073 0.00619892 0
-0.0389289 0.00569372 0
-0.0425321 0.00490055 0
-0.0454283 0.00380858 0
-0.0474373 0.00242784 0
-0.0484008 0.000793379 0
-0.0481968 -0.00103228 0
-0.0467553 -0.002957 0
-0.0440708 -0.00485846 0
-0.0402138 -0.00659038 0
-0.0353399 -0.00799473 0
-0.0296917 -0.00891901 0
-0.0235923 -0.00923783 0
-0.0174276 -0.00887719 0
-0.0116152 -0.00783762 0
-0.00655913 -0.00621075 0
-0.00259476 -0.00418304 0
6.95637e-05 -0.00202351 0
0.00140442 -5.53436e-05 0
0.00159125 0.0013717 0
0.00102415 0.00190182 0
0.000307136 0.00116549 0
-0.000400708 0.000596466 0
-0.00191494 0.00289066 0
-0.00473216 0.00528874 0
-0.00860439 0.00735707 0
-0.0132951 0.00898565 0
-0.0185984 0.0102049 0
-0.0243357 0.0110724 0
-0.0303414 0.01162 0
-0.0364472 0.0118411 0
-0.0424725 0.0116991 0
-0.0482194 0.0111437 0
-0.0534762 0.0101273 0
-0.0580241 0.00861815 0
-0.0616482 0.00661133 0
-0.0641498 0.00413566 0
-0.0653596 0.00125878 0
-0.0651511 -0.00191011 0
-0.0634518 -0.00522 0
-0.0602533 -0.0084786 0
-0.0556234 -0.011457 0
-0.0497188 -0.0139066 0
-0.0427913 -0.0155829 0
-0.0351876 -0.016277 0
-0.0273376 -0.0158527 0
-0.0197273 -0.0142849 0
-0.0128534 -0.0116934 0
-0.00715995 -0.00835821 0
-0.00296386 -0.00470876 0
-0.000384832 -0.00128398 0
0.000704661 0.00132401 0
0.000698551 0.00252272 0
0.000243767 0.00171639 0
-0.000635012 0.00163219 0
-0.00288523 0.00561938 0
-0.00684183 0.00933384 0
-0.0120518 0.0123942 0
-0.0181675 0.014755 0
-0.0249266 0.0164979 0
-0.0321179 0.0177079 0
-0.0395496 0.0184218 0
-0.0470277 0.0186232 0
-0.0543446 0.018259 0
-0.061277 0.0172632 0
-0.0675912 0.0155788 0
-0.073051 0.0131744 0
-0.077429 0.0100571 0
-0.0805174 0.00627987 0
-0.0821395 0.00194652 0
-0.0821598 -0.00278606 0
-0.0804904 -0.00771278 0
-0.0770989 -0.0125759 0
-0.0720242 -0.0170643 0
-0.0653945 -0.0208337 0
-0.0574416 -0.0235363 0
-0.0485084 -0.0248604 0
-0.0390471 -0.0245805 0
-0.0295998 -0.0226147 0
-0.0207568 -0.0190805 0
-0.0130882 -0.0143331 0
-0.00705275 -0.0089654 0
-0.00290115 -0.00375797 0
-0.000601465 0.000408824 0
0.000195838 0.00264672 0
0.000141431 0.00210159 0
-0.000872091 0.00313929 0
-0.00386388 0.00935429 0
-0.0089595 0.0146512 0
-0.015491 0.0188183 0
-0.022995 0.0219506 0
-0.0311523 0.0242188 0
-0.0397235 0.0257494 0
-0.0484992 0.0265877 0
-0.0572705 0.0267069 0
-0.0658165 0.0260382 0
-0.0739023 0.0245024 0
-0.0812851 0.0220365 0
-0.0877215 0.0186129 0
-0.0929773 0.0142523 0
-0.0968359 0.00903174 0
-0.0991073 0.00308818 0
-0.0996349 -0.00337981 0
-0.0983 -0.0101234 0
-0.095027 -0.0168297 0
-0.0898038 -0.0231083 0
-0.0827071 -0.028516 0
-0.0739248 -0.0325893 0
-0.0637739 -0.0348915 0
-0.0527101 -0.0350745 0
-0.0413211 -0.0329571 0
-0.0302935 -0.0286087 0
-0.0203446 -0.0224224 0
-0.0121153 -0.0151409 0
-0.00604037 -0.00780901 0
-0.00223267 -0.00164753 0
-0.000424098 0.0020972 0
1.91988e-05 0.00226222 0
-0.00110214 0.00511352 0
-0.00480811 0.0140778 0
-0.0109916 0.0212067 0
-0.0187759 0.0265785 0
-0.0275873 0.0305058 0
-0.0370557 0.0332892 0
-0.0469194 0.035114 0
-0.0569598 0.0360392 0
-0.0669635 0.0360304 0
-0.0767071 0.0350043 0
-0.0859552 0.0328703 0
-0.094464 0.0295602 0
-0.101988 0.0250494 0
-0.108285 0.0193693 0
-0.113127 0.0126151 0
-0.1163 0.00494885 0
-0.117613 -0.0033991 0
-0.116907 -0.012146 0
-0.114049 -0.0209378 0
-0.108962 -0.0293105 0
-0.101653 -0.0367194 0
-0.0922461 -0.042575 0
-0.0810094 -0.0462933 0
-0.0683784 -0.0473674 0
-0.0549671 -0.0454646 0
-0.0415514 -0.0405446 0
-0.0290095 -0.0329773 0
-0.0182054 -0.0236193 0
-0.00982118 -0.0137897 0
-0.00418287 -0.00511287 0
-0.00115077 0.000721856 0
-0.000118961 0.00216246 0
-0.00131494 0.00753061 0
-0.00567651 0.0197283 0
-0.0128519 0.0289151 0
-0.0217739 0.0355765 0
-0.031772 0.0403173 0
-0.0424331 0.0436071 0
-0.0534812 0.0457079 0
-0.0646957 0.0467002 0
-0.0758671 0.0465445 0
-0.0867782 0.045145 0
-0.0971998 0.0423993 0
-0.106892 0.0382322 0
-0.115608 0.0326172 0
-0.123098 0.0255892 0
-0.129113 0.0172517 0
-0.133409 0.00778129 0
-0.135756 -0.00257127 0
-0.135943 -0.0134941 0
-0.13378 -0.0246098 0
-0.129117 -0.0353886 0
-0.12188 -0.0451871 0
-0.11211 -0.0532842 0
-0.1 -0.0589307 0
-0.085935 -0.0614261 0
-0.0705217 -0.0602304 0
-0.0546002 -0.0551159 0
-0.039206 -0.0463422 0
-0.0254563 -0.0348082 0
-0.0143498 -0.0220915 0
-0.00651412 -0.010285 0
-0.00200762 -0.00164461 0
-0.000276998 0.0017665 0
-0.00149952 0.0103451 0
-0.00642734 0.0262032 0
-0.0144571 0.0376453 0
-0.0243602 0.0456716 0
-0.0353856 0.0512457 0
-0.0470876 0.0550418 0
-0.0591822 0.0574159 0
-0.071453 0.0584775 0
-0.0837004 0.0581859 0
-0.0957191 0.0564334 0
-0.107291 0.0531039 0
-0.118181 0.0481105 0
-0.128143 0.0414174 0
-0.136917 0.0330529 0
-0.144233 0.023118 0
-0.149813 0.011792 0
-0.153385 -0.000663642 0
-0.15469 -0.0139102 0
-0.153483 -0.0275629 0
-0.149541 -0.0410403 0
-0.142704 -0.0536099 0
-0.132913 -0.0644222 0
-0.12026 -0.0725553 0
-0.10504 -0.0770877 0
-0.0878043 -0.0772175 0
-0.0694121 -0.0724425 0
-0.0510248 -0.0627972 0
-0.0340208 -0.0491068 0
-0.019777 -0.0331433 0
-0.00933002 -0.0175158 0
-0.0030427 -0.00520763 0
-0.000466655 0.00102284 0
-0.00164482 0.0134894 0
-0.00701975 0.0333616 0
-0.0157281 0.047225 0
-0.0264169 0.0566838 0
-0.0382732 0.0631152 0
-0.0508273 0.0674284 0
-0.0637921 0.0700887 0
-0.0769593 0.0712427 0
-0.090143 0.0708518 0
-0.103153 0.0687962 0
-0.115784 0.0649434 0
-0.127811 0.0591886 0
-0.138988 0.0514783 0
-0.149046 0.041824 0
-0.157697 0.0303131 0
-0.164637 0.0171175 0
-0.169555 0.00250107 0
-0.172149 -0.0131761 0
-0.172127 -0.029526 0
-0.169206 -0.0459401 0
-0.163137 -0.0616159 0
-0.153753 -0.0755909 0
-0.141017 -0.0867761 0
-0.125088 -0.0940162 0
-0.106409 -0.096203 0
-0.0857874 -0.0924711 0
-0.0644495 -0.0824937 0
-0.0440079 -0.066856 0
-0.0262558 -0.0473901 0
-0.0127543 -0.0272175 0
-0.00431819 -0.0102295 0
-0.000702875 -0.000146686 0
-0.00174057 0.0168748 0
-0.00741659 0.0410272 0
-0.0165936 0.0574448 0
-0.0278375 0.0683967 0
-0.0402923 0.0757134 0
-0.0534708 0.0805628 0
-0.0670851 0.0835334 0
-0.0809364 0.0848165 0
-0.0948538 0.084379 0
-0.108664 0.0820891 0
-0.122177 0.0777946 0
-0.13518 0.0713672 0
-0.147431 0.062728 0
-0.158662 0.0518632 0
-0.168575 0.0388374 0
-0.176848 0.0238063 0
-0.183145 0.0070283 0
-0.187128 -0.0111264 0
-0.188474 -0.0302525 0
-0.186857 -0.049752 0
-0.181948 -0.0687811 0
-0.173465 -0.086293 0
-0.16122 -0.101055 0
-0.1452 -0.111686 0
-0.125669 -0.116744 0
-0.103299 -0.114923 0
-0.0792912 -0.105388 0
-0.0554211 -0.0882735 0
-0.0338962 -0.0652495 0
-0.0169054 -0.0398502 0
-0.00590052 -0.0170377 0
-0.00100235 -0.00185192 0
-0.00177847 0.0203938 0
-0.00758778 0.0489935 0
-0.0169955 0.0680631 0
-0.0285344 0.0805612 0
-0.0413231 0.0887924 0
-0.0548607 0.0942 0
-0.0688582 0.097508 0
-0.0831253 0.0989602 0
-0.0975055 0.0985329 0
-0.111843 0.0960829 0
-0.125966 0.0914366 0
-0.139676 0.0844384 0
-0.152747 0.0749788 0
-0.164916 0.0630128 0
-0.175892 0.0485764 0
-0.185354 0.031802 0
-0.192957 0.0129337 0
-0.198345 -0.00766101 0
-0.201178 -0.0295391 0
-0.201108 -0.0521534 0
-0.19774 -0.0746555 0
-0.190685 -0.0959573 0
-0.179594 -0.114727 0
-0.164242 -0.129386 0
-0.144652 -0.138164 0
-0.121267 -0.139257 0
-0.0951451 -0.131183 0
-0.0681101 -0.113383 0
-0.0427249 -0.0870501 0
-0.0218733 -0.0558921 0
-0.00785231 -0.0260217 0
-0.00138206 -0.00423633 0
-0.00175326 0.0239256 0
-0.00751393 0.0570317 0
-0.0168954 0.0788141 0
-0.0284477 0.0929014 0
-0.0412799 0.102073 0
-0.0548796 0.108057 0
-0.0689536 0.111723 0
-0.0833167 0.113376 0
-0.0978254 0.113006 0
-0.112341 0.110463 0
-0.126712 0.10555 0
-0.140762 0.0980849 0
-0.154285 0.0879251 0
-0.167042 0.074993 0
-0.178762 0.059293 0
-0.189145 0.0409301 0
-0.197864 0.0201273 0
-0.204571 -0.00276004 0
-0.208925 -0.0272522 0
-0.210567 -0.0528691 0
-0.209072 -0.0788022 0
-0.203958 -0.10398 0
-0.194718 -0.127035 0
-0.180893 -0.146255 0
-0.162206 -0.159571 0
-0.138776 -0.164665 0
-0.111381 -0.159292 0
-0.0817422 -0.141948 0
-0.0526548 -0.112958 0
-0.0277008 -0.0757902 0
-0.0102262 -0.0376191 0
-0.00185854 -0.00747692 0
-0.00166373 0.0273425 0
-0.00718972 0.0649014 0
-0.0162808 0.089417 0
-0.0275538 0.105124 0
-0.0401242 0.115253 0
-0.0534675 0.12182 0
-0.0672819 0.125848 0
-0.081383 0.127714 0
-0.0956372 0.127431 0
-0.109923 0.124841 0
-0.124111 0.119732 0
-0.138051 0.111894 0
-0.15157 0.101157 0
-0.164465 0.0874127 0
-0.176506 0.0706345 0
-0.187433 0.0508997 0
-0.196964 0.0284063 0
-0.204786 0.00349029 0
-0.210574 -0.0233597 0
-0.213984 -0.0517095 0
-0.214597 -0.0808441 0
-0.211872 -0.109778 0
-0.205156 -0.137193 0
-0.193751 -0.161329 0
-0.177038 -0.179896 0
-0.154723 -0.190087 0
-0.127166 -0.188822 0
-0.0958003 -0.173423 0
-0.0634684 -0.142902 0
-0.0343687 -0.0998994 0
-0.0130596 -0.0522936 0
-0.00244714 -0.0117826 0
-0.00151342 0.0305197 0
-0.00662635 0.0723632 0
-0.0151694 0.0995894 0
-0.0258735 0.116929 0
-0.0378747 0.12802 0
-0.0506362 0.135158 0
-0.0638419 0.13953 0
-0.0773031 0.141595 0
-0.0908931 0.141394 0
-0.104507 0.138777 0
-0.11804 0.133516 0
-0.131374 0.125384 0
-0.144376 0.114187 0
-0.156891 0.0997927 0
-0.168746 0.0821505 0
-0.179748 0.0613133 0
-0.189678 0.0374532 0
-0.19829 0.0108775 0
-0.205295 -0.0179535 0
-0.210397 -0.0486037 0
-0.213223 -0.0805111 0
-0.21321 -0.112849 0
-0.209599 -0.144447 0
-0.201463 -0.173616 0
-0.187826 -0.197958 0
-0.167907 -0.214258 0
-0.14152 -0.218594 0
-0.109607 -0.20693 0
-0.0748168 -0.176517 0
-0.0417879 -0.128414 0
-0.0163705 -0.0705059 0
-0.00316175 -0.0173915 0
-0.00131092 0.033344 0
-0.00585293 0.0791938 0
-0.0136125 0.109061 0
-0.023476 0.128024 0
-0.0346141 0.140064 0
-0.0464775 0.147739 0
-0.058731 0.152409 0
-0.0711768 0.154624 0
-0.0836923 0.154471 0
-0.0961888 0.15181 0
-0.108588 0.146414 0
-0.120809 0.138042 0
-0.132764 0.126486 0
-0.144355 0.111601 0
-0.155478 0.0933208 0
-0.166017 0.0716839 0
-0.175844 0.0468398 0
-0.184803 0.0190617 0
-0.19269 -0.0112455 0
-0.19928 -0.0436201 0
-0.204265 -0.0776833 0
-0.207119 -0.112837 0
-0.207026 -0.148164 0
-0.202876 -0.182185 0
-0.193347 -0.212556 0
-0.177136 -0.23579 0
-0.153392 -0.247193 0
-0.122367 -0.24127 0
-0.0862362 -0.213097 0
-0.0497982 -0.1613 0
-0.0201566 -0.0926784 0
-0.00401554 -0.0245688 0
-0.00106967 0.0357246 0
-0.00491649 0.0852021 0
-0.0116959 0.117592 0
-0.0204814 0.138142 0
-0.0304916 0.151094 0
-0.0411661 0.159246 0
-0.0521476 0.164136 0
-0.0632259 0.16642 0
-0.0742811 0.166245 0
-0.0852413 0.163493 0
-0.0960571 0.157946 0
-0.106688 0.149362 0
-0.117095 0.137529 0
-0.127243 0.122298 0
-0.137098 0.103602 0
-0.146633 0.0814764 0
-0.155819 0.0560598 0
-0.164615 0.0275973 0
-0.172945 -0.00356379 0
-0.180677 -0.0369805 0
-0.187588 -0.0724261 0
-0.193244 -0.109585 0
-0.19685 -0.147902 0
-0.197182 -0.186265 0
-0.192618 -0.22257 0
-0.181337 -0.253268 0
-0.161749 -0.273047 0
-0.13323 -0.274961 0
-0.097176 -0.251592 0
-0.0581766 -0.198243 0
-0.024398 -0.119156 0
-0.00502318 -0.0336075 0
-0.000807492 0.0376018 0
-0.00388085 0.0902451 0
-0.00953863 0.124986 0
-0.0170592 0.147055 0
-0.0257206 0.160853 0
-0.0349549 0.169396 0
-0.0443832 0.174396 0
-0.0537825 0.176637 0
-0.0630361 0.176336 0
-0.0720915 0.173417 0
-0.0809316 0.167678 0
-0.0895589 0.158887 0
-0.0979881 0.14684 0
-0.106246 0.131392 0
-0.114371 0.112489 0
-0.122421 0.0901746 0
-0.130469 0.0645953 0
-0.138596 0.0359849 0
-0.146862 0.00464506 0
-0.155258 -0.0290622 0
-0.163683 -0.0650076 0
-0.171844 -0.103186 0
-0.179044 -0.143495 0
-0.184043 -0.185341 0
-0.185015 -0.227085 0
-0.179674 -0.265374 0
-0.16567 -0.294533 0
-0.141354 -0.306308 0
-0.107037 -0.290615 0
-0.0666527 -0.238603 0
-0.029065 -0.150162 0
-0.00620534 -0.044836 0
-0.000545793 0.0389551 0
-0.00282488 0.0942442 0
-0.00729122 0.131111 0
-0.0134258 0.154585 0
-0.0205733 0.169132 0
-0.0281661 0.177944 0
-0.0358081 0.182918 0
-0.0432673 0.184974 0
-0.0504346 0.184421 0
-0.0572815 0.181235 0
-0.0638281 0.175247 0
-0.0701245 0.166242 0
-0.0762414 0.154031 0
-0.0822675 0.138484 0
-0.0883116 0.119566 0
-0.0945073 0.0973431 0
-0.101017 0.0719843 0
-0.108028 0.0437341 0
-0.115732 0.0128666 0
-0.12426 -0.0203602 0
-0.133661 -0.0558833 0
-0.143815 -0.0939963 0
-0.1542 -0.135099 0
-0.163683 -0.179255 0
-0.170371 -0.225511 0
-0.171637 -0.271023 0
-0.164419 -0.310107 0
-0.145963 -0.333505 0
-0.115207 -0.328492 0
-0.0749248 -0.281394 0
-0.0341294 -0.185754 0
-0.00759537 -0.0586367 0
-0.000309023 0.0398099 0
-0.00184119 0.0972007 0
-0.00513355 0.135913 0
-0.00984089 0.160624 0
-0.0153753 0.175774 0
-0.0211797 0.184699 0
-0.0268524 0.189478 0
-0.0321624 0.191184 0
-0.0370171 0.190233 0
-0.0414195 0.186672 0
-0.0454336 0.180371 0
-0.0491623 0.171143 0
-0.0527354 0.15882 0
-0.0563048 0.143291 0
-0.0600448 0.124543 0
-0.064155 0.102672 0
-0.0688662 0.0778765 0
-0.0744441 0.0504311 0
-0.0811806 0.0206104 0
-0.0893507 -0.0114057 0
-0.0991506 -0.0456369 0
-0.110631 -0.0826091 0
-0.123514 -0.123219 0
-0.136901 -0.168266 0
-0.149021 -0.217692 0
-0.157097 -0.2695 0
-0.157501 -0.318445 0
-0.146383 -0.354741 0
-0.121081 -0.363314 0
-0.0826696 -0.325265 0
-0.0395737 -0.225775 0
-0.00924608 -0.0754782 0
-0.000124859 0.0402438 0
-0.00103694 0.099211 0
-0.00327604 0.139434 0
-0.0066069 0.165142 0
-0.0104991 0.180684 0
-0.0144211 0.189516 0
-0.0179861 0.193899 0
-0.0209824 0.19507 0
-0.0233484 0.193568 0
-0.0251302 0.189521 0
-0.0264438 0.182849 0
-0.0274499 0.1734 0
-0.0283408 0.161027 0
-0.0293332 0.145645 0
-0.0306648 0.127261 0
-0.0325947 0.105994 0
-0.0354061 0.0820765 0
-0.0394117 0.0558146 0
-0.0449571 0.0275088 0
-0.0524083 -0.00268285 0
-0.0620768 -0.0348914 0
-0.0741672 -0.0697837 0
-0.0886616 -0.108667 0
-0.105014 -0.153078 0
-0.121782 -0.203992 0
-0.136314 -0.260591 0
-0.144674 -0.31859 0
-0.142049 -0.368338 0
-0.124054 -0.393015 0
-0.0895307 -0.368498 0
-0.0453888 -0.269779 0
-0.0112328 -0.095957 0
-2.61574e-05 0.0403948 0
-0.000539461 0.100485 0
-0.0019663 0.141826 0
-0.00407232 0.168187 0
-0.00636161 0.18382 0
-0.00834998 0.19229 0
-0.00969847 0.196038 0
-0.010244 0.196472 0
-0.00997841 0.194266 0
-0.00900661 0.189633 0
-0.00750604 0.18255 0
-0.00570026 0.172899 0
-0.00384644 0.160565 0
-0.00222681 0.145481 0
-0.00114196 0.127672 0
-0.000907117 0.107278 0
-0.00184924 0.0845465 0
-0.00430586 0.0598069 0
-0.00862796 0.033384 0
-0.0151862 0.00545125 0
-0.0243403 -0.0242029 0
-0.0363948 -0.0563274 0
-0.0515519 -0.0924718 0
-0.0696758 -0.134797 0
-0.0898529 -0.185328 0
-0.109883 -0.244693 0
-0.125907 -0.310105 0
-0.132465 -0.372889 0
-0.123473 -0.415451 0
-0.0950692 -0.408989 0
-0.0515451 -0.316954 0
-0.0136468 -0.120837 0
-5.64331e-05 0.0404774 0
-0.000511098 0.101371 0
-0.00150631 0.143363 0
-0.00264211 0.169892 0
-0.0034229 0.185185 0
-0.00344673 0.192938 0
-0.00247334 0.195766 0
-0.000431198 0.195248 0
0.00260294 0.19219 0
0.006445 0.186895 0
0.0108428 0.17939 0
0.0154999 0.169596 0
0.0200913 0.157423 0
0.0242722 0.142822 0
0.0276846 0.125833 0
0.0299659 0.1066 0
0.0307586 0.0853732 0
0.0297204 0.062475 0
0.0265319 0.0382265 0
0.0208938 0.0128051 0
0.0124911 -0.0139999 0
0.00099083 -0.0429756 0
-0.0139576 -0.0757181 0
-0.0325797 -0.114805 0
-0.0546026 -0.16312 0
-0.078607 -0.222866 0
-0.101306 -0.29321 0
-0.117115 -0.367418 0
-0.118534 -0.428495 0
-0.09866 -0.444224 0
-0.0579213 -0.365982 0
-0.0165724 -0.151056 0
-0.000282021 0.0408158 0
-0.00117994 0.102385 0
-0.00228468 0.144449 0
-0.00279494 0.170452 0
-0.00218287 0.184793 0
-0.000188873 0.191359 0
0.00325583 0.192926 0
0.00806269 0.191238 0
0.0140185 0.18721 0
0.0208385 0.181213 0
0.0281893 0.173323 0
0.0357056 0.16349 0
0.0430015 0.151642 0
0.0496789 0.137745 0
0.0553354 0.121842 0
0.0595749 0.104071 0
0.0620224 0.0846625 0
0.0623396 0.0639068 0
0.0602381 0.0420847 0
0.0554792 0.0193439 0
0.0478423 -0.00449918 0
0.0370897 -0.0302234 0
0.0229371 -0.0593693 0
0.00496484 -0.0945595 0
-0.0172423 -0.139135 0
-0.0432829 -0.196805 0
-0.0709651 -0.268889 0
-0.0953388 -0.351556 0
-0.108117 -0.430159 0
-0.0993128 -0.471238 0
-0.0641688 -0.414851 0
-0.0200384 -0.187667 0
-0.000816207 0.0419141 0
-0.00289488 0.104263 0
-0.00482492 0.145605 0
-0.00509907 0.17008 0
-0.00316369 0.182618 0
0.000985915 0.187391 0
0.00712367 0.187312 0
0.0149189 0.18425 0
0.0239835 0.179177 0
0.0339111 0.172498 0
0.0442845 0.164314 0
0.0546781 0.154589 0
0.0646605 0.143264 0
0.073799 0.130307 0
0.081667 0.115755 0
0.0878568 0.0997283 0
0.091995 0.0824195 0
0.0937611 0.0640664 0
0.0929019 0.0448859 0
0.0892324 0.0249712 0
0.0826103 0.00413247 0
0.0728625 -0.0183546 0
0.0597319 -0.0439548 0
0.0428316 -0.0751014 0
0.0216515 -0.115206 0
-0.00437331 -0.168669 0
-0.0347826 -0.238934 0
-0.0661745 -0.325746 0
-0.0905768 -0.418788 0
-0.0954017 -0.486588 0
-0.0694831 -0.460563 0
-0.0239314 -0.231636 0
-0.00186249 0.0445928 0
-0.00620818 0.108009 0
-0.00982798 0.147409 0
-0.0101846 0.168907 0
-0.00682994 0.178501 0
-0.000217727 0.180746 0
0.00897421 0.178627 0
0.0200843 0.17403 0
0.0325148 0.167903 0
0.0457301 0.16063 0
0.0592383 0.1523 0
0.0725722 0.142875 0
0.0852779 0.13229 0
0.0969141 0.120506 0
0.107057 0.107545 0
0.11531 0.0934947 0
0.121325 0.0784999 0
0.124812 0.0627326 0
0.125556 0.046335 0
0.123414 0.0293338 0
0.118291 0.0115147 0
0.110073 -0.0077709 0
0.0985177 -0.0298526 0
0.0832133 -0.0569989 0
0.0635475 -0.0924629 0
0.0386734 -0.140514 0
0.00782582 -0.205832 0
-0.0281846 -0.291445 0
-0.0635018 -0.39337 0
-0.0842893 -0.486394 0
-0.0722377 -0.498727 0
-0.0278471 -0.283415 0
-0.00377985 0.0502351 0
-0.0119527 0.114885 0
-0.0181054 0.150305 0
-0.0185136 0.166775 0
-0.01324 0.172004 0
-0.00352645 0.170917 0
0.00932501 0.166413 0
0.02425 0.160209 0
0.040427 0.153116 0
0.0572091 0.14542 0
0.0740583 0.137153 0
0.0904961 0.128251 0
0.106078 0.118627 0
0.120384 0.108227 0
0.133021 0.0970451 0
0.143632 0.0851303 0
0.151908 0.072573 0
0.157603 0.0594771 0
0.16054 0.0459106 0
0.160603 0.0318369 0
0.157721 0.0170162 0
0.151802 0.000864704 0
0.142607 -0.0177373 0
0.129675 -0.0408781 0
0.112258 -0.0715008 0
0.0891993 -0.113543 0
0.059038 -0.171794 0
0.0207705 -0.251205 0
-0.0234978 -0.354024 0
-0.0618452 -0.466605 0
-0.0693962 -0.523017 0
-0.0308249 -0.342087 0
-0.00713726 0.0611522 0
-0.0211355 0.126139 0
-0.030038 0.154106 0
-0.0294759 0.16282 0
-0.0209135 0.162123 0
-0.00682911 0.157 0
0.0107178 0.149932 0
0.0302579 0.142225 0
0.0507895 0.134391 0
0.071614 0.126537 0
0.0921989 0.118601 0
0.112099 0.110465 0
0.130915 0.102014 0
0.148281 0.093167 0
0.163863 0.0838868 0
0.177359 0.0741809 0
0.188518 0.064087 0
0.197139 0.0536473 0
0.203074 0.0428688 0
0.206222 0.0316677 0
0.206495 0.0197935 0
0.203776 0.00672575 0
0.197839 -0.00846607 0
0.188173 -0.0275514 0
0.173821 -0.053059 0
0.153285 -0.0883897 0
0.124459 -0.13796 0
0.084995 -0.207307 0
0.0339601 -0.302619 0
-0.0219033 -0.4238 0
-0.0555521 -0.524622 0
-0.0308465 -0.403758 0
-0.0125451 0.0808345 0
-0.0338951 0.141805 0
-0.043317 0.156765 0
-0.0383372 0.15462 0
-0.023346 0.14677 0
-0.00244876 0.137371 0
0.0215872 0.127977 0
0.0470526 0.119174 0
0.0729359 0.111028 0
0.0986013 0.103411 0
0.123601 0.0961435 0
0.147577 0.0890468 0
0.170221 0.0819726 0
0.19125 0.074813 0
0.210408 0.0675022 0
0.227465 0.0600111 0
0.242229 0.0523338 0
0.254542 0.0444668 0
0.264279 0.0363768 0
0.271333 0.0279586 0
0.275586 0.0189763 0
0.276864 0.00898358 0
0.274873 -0.00279603 0
0.269021 -0.0177026 0
0.258178 -0.0377137 0
0.240489 -0.06551 0
0.213246 -0.104771 0
0.172982 -0.160767 0
0.116366 -0.241507 0
0.0443082 -0.35699 0
-0.0213055 -0.492169 0
-0.0238088 -0.458413 0
-0.0191498 0.112529 0
-0.0443992 0.15671 0