# vtk DataFile Version 2.0
Lid-driven cavity
ASCII
DATASET STRUCTURED_POINTS
DIMENSIONS 32 32 1
ORIGIN 0.015625 0.015625 0
SPACING 0.03125 0.03125 1
POINT_DATA 1024
SCALARS pressure double 1
LOOKUP_TABLE default
46.7608
46.56
46.2019
45.7995
45.4215
45.103
44.8616
44.7099
44.6621
44.7358
44.9506
45.3253
45.8736
46.5996
47.4943
48.5318
49.668
50.8423
51.9757
52.9782
53.7608
54.2483
54.3935
54.1877
53.666
52.9046
52.009
51.1
50.2979
49.7065
49.4
49.3875
46.9615
46.7518
46.4524
46.1285
45.8232
45.5616
45.3589
45.228
45.1832
45.2417
45.422
45.7416
46.2138
46.8437
47.6246
48.5347
49.5353
50.574
51.5789
52.4685
53.1617
53.5908
53.7141
53.5263
53.0627
52.395
51.6199
50.8409
50.1577
49.6514
49.3799
49.3749
47.333
47.0333
46.7227
46.4267
46.1604
45.9318
45.7476
45.6169
45.5527
45.5721
45.6949
45.9406
46.3258
46.86
47.5419
48.3555
49.2678
50.2306
51.1749
52.0201
52.6846
53.0991
53.2201
53.0407
52.5957
51.9566
51.219
50.484
49.8399
49.358
49.0889
49.0726
47.7484
47.3196
46.9589
46.656
46.3982
46.1752
45.9827
45.8241
45.711
45.6614
45.6979
45.8451
46.1256
46.5565
47.1442
47.8804
48.7386
49.6713
50.6098
51.4706
52.1658
52.6174
52.7731
52.6186
52.1848
51.5431
50.7922
50.037
49.3686
48.854
48.5417
48.4695
48.0882
47.5159
47.0857
46.7523
46.4761
46.2288
45.9953
45.7738
45.5747
45.4183
45.332
45.3473
45.4958
45.8044
46.2896
46.953
47.776
48.7116
49.6915
50.6269
51.4195
51.9768
52.2298
52.1487
51.7531
51.1106
50.3235
49.5059
48.7593
48.1586
47.7549
47.5859
48.2367
47.52
47.0124
46.6319
46.3125
46.0091
45.6972
45.371
45.041
44.7309
44.4747
44.3129
44.2881
44.4391
44.7956
45.3714
46.1593
47.1164
48.1773
49.2482
50.2178
50.9729
51.4186
51.4982
51.2086
50.6045
49.7879
48.8851
48.0175
47.28
46.7371
46.4346
48.079
47.2244
46.6373
46.1964
45.8095
45.4161
44.984
44.5048
43.9902
43.4689
42.9824
42.582
42.3232
42.2599
42.4374
42.8855
43.6124
44.5895
45.7596
47.0269
48.2659
49.3375
50.1103
50.4857
50.4208
49.9414
49.1398
48.1541
47.1346
46.2117
45.4806
45.0085
47.5008
46.5201
45.8537
45.3397
44.8601
44.3401
43.7411
43.0534
42.2909
41.4874
40.6935
39.9724
39.3948
39.0324
38.9502
39.1987
39.8061
40.772
42.0593
43.576
45.1846
46.7158
47.9911
48.8523
49.1936
48.988
48.2991
47.2694
46.0862
44.9351
43.9652
43.2798
46.3927
45.3012
44.5566
43.9558
43.3558
42.6691
41.8514
40.8919
39.8068
38.6356
37.438
36.2902
35.2804
34.5014
34.0431
33.9823
34.3733
35.256
36.6359
38.4344
40.5077
42.6563
44.6459
46.2401
47.2421
47.5388
47.1335
46.1547
44.8278
43.4155
42.1515
41.2012
44.6563
43.4728
42.6504
41.9471
41.1964
40.299
39.2052
37.9027
36.4095
34.7699
33.0526
31.3478
29.7628
28.4159
27.4271
26.9072
26.9438
27.6216
29.0232
31.0979
33.7071
36.6266
39.563
42.1859
44.178
45.2979
45.4428
44.69
43.2912
41.6055
39.9911
38.7127
42.2121
40.9582
40.0581
39.2345
38.3003
37.145
35.7134
33.9907
31.9949
29.774
27.4048
24.9916
22.6631
20.5665
18.8584
17.6919
17.2005
17.4977
18.7918
21.0813
24.2497
28.0612
32.1689
36.141
39.5139
41.8719
42.9454
42.7006
41.3795
39.4456
37.429
35.7468
39.008
37.7074
36.7294
35.767
34.6155
33.1543
31.322
29.0997
26.5035
23.5829
20.4214
17.1371
13.8811
10.833
8.19133
6.15972
4.9271
4.645
5.63588
8.00883
11.688
16.447
21.9023
27.5271
32.6981
36.784
39.2781
39.9504
38.9636
36.8672
34.4105
32.2374
35.0259
33.7045
32.6489
31.5303
30.1298
28.318
26.0265
23.2302
19.9412
16.2079
12.1186
7.80395
3.43791
-0.765688
-4.56187
-7.69027
-9.89846
-10.9727
-10.5328
-8.27894
-4.22537
1.43835
8.32254
15.8305
23.1864
29.5186
34.0156
36.1459
35.8818
33.7971
30.8914
28.1325
30.2871
28.9717
27.8412
26.5531
24.8786
22.6805
19.883
16.4532
12.3963
7.75724
2.62656
-2.85421
-8.48924
-14.0298
-19.1824
-23.6255
-27.0353
-29.1232
-29.4977
-27.6217
-23.4203
-17.0143
-8.7581
0.727331
10.5496
19.6019
26.7196
30.9584
31.9485
30.1661
26.852
23.4093
24.8531
23.5709
22.3722
20.9093
18.9479
16.3446
13.0154
8.91827
4.04923
-1.55278
-7.79759
-14.5352
-21.5497
-28.5591
-35.2217
-41.1535
-45.9556
-49.252
-50.6763
-49.4665
-45.4182
-38.5546
-29.1479
-17.7807
-5.39474
6.71454
17.0209
24.0719
26.9783
25.9257
22.3165
18.0961
18.8228
17.6003
16.346
14.7154
12.4727
9.46953
5.61359
0.852228
-4.82935
-11.4006
-18.7743
-26.7944
-35.2281
-43.7627
-52.012
-59.5329
-65.8543
-70.5172
-73.1232
-72.8591
-69.3035
-62.3641
-52.19
-39.2545
-24.4544
-9.18097
4.72666
15.2592
20.8297
21.0751
17.3806
12.301
12.3252
11.1868
9.89722
8.12268
5.62888
2.26314
-2.07557
-7.45165
-13.8924
-21.3775
-29.8247
-39.0747
-48.8808
-58.9039
-68.7184
-77.829
-85.7007
-91.8008
-95.6531
-96.5295
-93.7846
-87.1943
-76.7565
-62.7684
-45.9742
-27.7265
-10.0616
4.47872
13.4713
15.7048
12.2495
6.25064
5.50783
4.47405
3.17859
1.30435
-1.38006
-5.03253
-9.7644
-15.6534
-22.741
-31.0186
-40.4106
-50.7567
-61.799
-73.1765
-84.4304
-95.0219
-104.363
-111.859
-116.962
-119.046
-117.344
-111.499
-101.346
-86.958
-68.8254
-48.1042
-26.8501
-8.02039
5.06831
10.058
7.29069
0.344419
-1.47766
-2.39253
-3.65463
-5.56017
-8.3393
-12.1592
-17.1453
-23.3919
-30.9562
-39.8431
-49.9846
-61.2206
-73.2846
-85.7975
-98.2736
-110.14
-120.767
-129.518
-135.789
-139.024
-138.463
-133.658
-124.283
-110.177
-91.4984
-69.0558
-44.7053
-21.6099
-3.92205
4.61292
3.10761
-4.76854
-8.4918
-9.28241
-10.4614
-12.3022
-15.0401
-18.861
-23.9127
-30.3109
-38.132
-47.3951
-58.0404
-69.9084
-82.7253
-96.0971
-109.516
-122.383
-134.042
-143.827
-151.107
-155.331
-155.871
-152.24
-143.991
-130.742
-112.299
-89.0018
-62.2845
-35.2362
-12.6583
0.186908
0.645023
-8.07294
-15.4241
-16.0973
-17.1319
-18.7793
-21.295
-24.9012
-29.7821
-36.0837
-43.9053
-53.281
-64.1579
-76.376
-89.6546
-103.587
-117.647
-131.217
-143.621
-154.177
-162.249
-167.277
-168.757
-166.247
-159.257
-147.22
-129.612
-106.249
-77.9554
-47.4383
-19.8469
-1.94369
1.33711
-8.0124
-22.2107
-22.7887
-23.6023
-24.8879
-26.9486
-30.0734
-34.5048
-40.4311
-47.9793
-57.1972
-68.0348
-80.3282
-93.7891
-107.999
-122.417
-136.412
-149.294
-160.372
-169.008
-174.651
-176.855
-175.268
-169.429
-158.661
-142.163
-119.239
-89.9874
-56.4391
-23.7168
0.0826221
7.30548
-2.2357
-28.8542
-29.3777
-29.8693
-30.5706
-31.8818
-34.2063
-37.8752
-43.133
-50.1387
-58.9484
-69.5136
-81.6633
-95.0925
-109.365
-123.926
-138.127
-151.271
-162.662
-171.663
-177.733
-180.437
-179.479
-174.47
-164.715
-149.199
-126.772
-96.7643
-60.2947
-22.0523
8.82239
21.6021
12.7479
-35.4528
-35.9811
-36.003
-35.8181
-36.0085
-37.1625
-39.7364
-44.0541
-50.2971
-58.5229
-68.6668
-80.5355
-93.8012
-108.006
-122.574
-136.845
-150.112
-161.676
-170.897
-177.237
-180.266
-179.635
-174.937
-165.591
-150.52
-128.107
-96.9467
-57.0584
-12.2835
27.5898
48.4709
42.0017
-42.256
-42.8557
-42.1656
-40.6667
-39.2653
-38.8318
-39.987
-43.1192
-48.4271
-55.9507
-65.5921
-77.1204
-90.1732
-104.263
-118.792
-133.085
-146.424
-158.104
-167.479
-173.996
-177.212
-176.731
-171.988
-162.259
-146.415
-122.901
-89.5114
-44.8917
8.38899
60.4362
93.5776
92.665
-49.787
-50.4863
-48.6418
-45.1932
-41.5944
-39.1032
-38.5304
-40.2913
-44.5714
-51.3623
-60.5073
-71.7199
-84.591
-98.5965
-113.114
-127.45
-140.877
-152.678
-162.19
-168.832
-172.114
-171.601
-166.527
-155.882
-138.267
-111.659
-73.6649
-22.0646
42.8801
112.01
164.128
174.503
-59.1333
-59.7677
-55.8978
-49.5115
-42.9336
-37.8821
-35.323
-35.6205
-38.8831
-45.0078
-53.749
-64.7455
-77.5305
-91.5388
-106.12
-120.564
-134.13
-146.085
-155.739
-162.466
-165.702
-164.912
-159.244
-147.145
-126.762
-95.4381
-49.8469
13.1359
94.156
187.246
268.753
300.495
-72.6594
-72.3711
-64.6579
-53.7391
-43.1791
-35.0794
-30.3756
-29.2437
-31.615
-37.2342
-45.7352
-56.6669
-69.4984
-83.6211
-98.3578
-112.98
-126.735
-138.871
-148.664
-155.425
-158.489
-157.16
-150.57
-136.435
-112.248
-74.4974
-18.6128
60.2289
164.846
290.773
416.891
487.469
-95.7932
-91.3422
-75.8237
-57.7644
-42.0007
-30.4813
-23.6533
-21.2904
-23.0234
-28.3836
-36.8601
-47.9048
-60.9232
-75.2667
-90.2343
-105.084
-119.05
-131.362
-141.258
-147.979
-150.736
-148.645
-140.605
-123.852
-94.8422
-49.0366
19.6794
118.45
253.669
426.05
617.004
756.717
-141.485
-121.145
-89.2324
-60.1512
-38.128
-23.2062
-14.6206
-11.5113
-13.0589
-18.5351
-27.2785
-38.6525
-52.0108
-66.6763
-81.9342
-97.0358
-111.209
-123.667
-133.611
-140.205
-142.527
-139.466
-129.56
-109.581
-74.9965
-20.15
62.8012
183.978
355.372
588.285
877.977
1133.53
-239.538
-161.165
-97.6052
-54.2876
-26.5479
-9.8445
-1.16437
1.38715
-0.933112
-7.21102
-16.7049
-28.7448
-42.6738
-57.8165
-73.4656
-88.8817
-103.297
-115.919
-125.916
-132.385
-134.271
-130.23
-118.398
-95.0341
-55.1548
7.86904
103.436
244.868
451.882
756.239
1204.72
1744.32
-482.958
-173.562
-64.3568
-18.6686
3.87386
15.3106
19.8129
19.1878
14.4443
6.29172
-4.67308
-17.8813
-32.7487
-48.6543
-64.9334
-80.8788
-95.7447
-108.746
-119.042
-125.691
-127.558
-123.142
-110.229
-85.0864
-42.6359
24.1723
125.462
276.506
503.369
861.547
1501.06
2814.28
VECTORS velocity double
8.33281e-05 -8.33281e-05 0
0.000170245 -3.58873e-06 0
3.64527e-05 0.000137381 0
-0.000367491 0.000266563 0
-0.00100002 0.00036597 0
-0.0018047 0.000438703 0
-0.0027357 0.000492297 0
-0.00376 0.000532 0
-0.00485111 0.000559111 0
-0.00598178 0.000571567 0
-0.00711859 0.000565236 0
-0.00821906 0.000535236 0
-0.00923136 0.000477064 0
-0.010096 0.000387544 0
-0.0107492 0.000265663 0
-0.0111281 0.00011329 0
-0.0111771 -6.43413e-05 0
-0.0108541 -0.000258642 0
-0.0101399 -0.000455517 0
-0.00904732 -0.000637099 0
-0.0076266 -0.000783616 0
-0.00596697 -0.000876018 0
-0.00419171 -0.000899239 0
-0.0024469 -0.000845578 0
-0.000883894 -0.000717425 0
0.000361983 -0.000528452 0
0.00119331 -0.000302878 0
0.00156746 -7.12706e-05 0
0.00150757 0.000131159 0
0.00111096 0.000265451 0
0.000560993 0.000284518 0
0.000138238 0.000138238 0
4.73906e-08 -0.000166704 0
-0.000248287 0.000241204 0
-0.00105572 0.000833814 0
-0.00245854 0.0013769 0
-0.00437579 0.00180541 0
-0.00669719 0.00212534 0
-0.00932045 0.00235991 0
-0.0121573 0.00252549 0
-0.0151254 0.00262485 0
-0.0181378 0.00264892 0
-0.0210947 0.0025816 0
-0.0238803 0.00240489 0
-0.0263639 0.00210339 0
-0.0284062 0.00166805 0
-0.029867 0.00109916 0
-0.0306171 0.000408868 0
-0.0305507 -0.00037736 0
-0.0295997 -0.00121962 0
-0.0277481 -0.00206026 0
-0.0250444 -0.00282872 0
-0.021609 -0.00344816 0
-0.0176352 -0.00384486 0
-0.0133811 -0.00395977 0
-0.00915008 -0.00376086 0
-0.00526132 -0.0032539 0
-0.00201058 -0.0024886 0
0.000373113 -0.00155775 0
0.00177022 -0.000587651 0
0.00220209 0.000275554 0
0.00184697 0.000872785 0
0.00104354 0.00103059 0
0.000290992 0.000567467 0
-0.000181208 1.44569e-05 0
-0.00100617 0.00113334 0
-0.00274607 0.00248901 0
-0.00532629 0.00370475 0
-0.00860292 0.00467143 0
-0.012421 0.00539883 0
-0.0166375 0.00592614 0
-0.0211206 0.00627923 0
-0.02574 0.00645858 0
-0.0303554 0.00644303 0
-0.0348106 0.00619968 0
-0.0389327 0.00569443 0
-0.0425364 0.00490118 0
-0.045433 0.00380907 0
-0.0474422 0.00242817 0
-0.0484057 0.000793516 0
-0.0482017 -0.00103236 0
-0.0467601 -0.00295731 0
-0.0440752 -0.00485899 0
-0.0402178 -0.0065911 0
-0.0353435 -0.00799561 0
-0.0296946 -0.00891998 0
-0.0235946 -0.00923883 0
-0.0174293 -0.00887814 0
-0.0116162 -0.00783844 0
-0.00655965 -0.00621138 0
-0.00259489 -0.00418343 0
6.96845e-05 -0.00202366 0
0.00140465 -5.52751e-05 0
0.00159147 0.00137192 0
0.00102429 0.00190208 0
0.000307174 0.00116563 0
-0.000400729 0.000596394 0
-0.00191506 0.00289069 0
-0.0047325 0.00528899 0
-0.00860507 0.00735757 0
-0.0132962 0.00898638 0
-0.0186001 0.0102058 0
-0.024338 0.0110735 0
-0.0303443 0.0116213 0
-0.0364508 0.0118424 0
-0.0424767 0.0117005 0
-0.0482243 0.0111451 0
-0.0534816 0.0101285 0
-0.05803 0.00861918 0
-0.0616545 0.00661212 0
-0.0641563 0.00413616 0
-0.0653662 0.00125894 0
-0.0651576 -0.0019103 0
-0.0634581 -0.00522056 0
-0.0602592 -0.00847952 0
-0.0556289 -0.0114583 0
-0.0497236 -0.0139081 0
-0.0427954 -0.0155845 0
-0.035191 -0.0162787 0
-0.0273402 -0.0158543 0
-0.0197292 -0.0142864 0
-0.0128546 -0.0116946 0
-0.00716061 -0.00835901 0
-0.0029641 -0.00470916 0
-0.000384833 -0.00128401 0
0.000704755 0.00132424 0
0.000698632 0.00252306 0
0.000243794 0.0017166 0
-0.000635068 0.00163219 0
-0.00288549 0.00561965 0
-0.00684248 0.00933446 0
-0.0120529 0.0123951 0
-0.0181693 0.0147563 0
-0.0249291 0.0164995 0
-0.0321211 0.0177097 0
-0.0395536 0.0184238 0
-0.0470325 0.0186253 0
-0.0543501 0.0182611 0
-0.0612833 0.0172652 0
-0.0675981 0.0155805 0
-0.0730584 0.0131759 0
-0.0774367 0.0100582 0
-0.0805253 0.00628051 0
-0.0821475 0.00194668 0
-0.0821677 -0.00278642 0
-0.080498 -0.00771365 0
-0.0771061 -0.0125773 0
-0.0720309 -0.0170661 0
-0.0654006 -0.0208358 0
-0.0574469 -0.0235387 0
-0.0485129 -0.024863 0
-0.0390508 -0.024583 0
-0.0296026 -0.0226169 0
-0.0207588 -0.0190824 0
-0.0130895 -0.0143345 0
-0.00705347 -0.00896621 0
-0.00290146 -0.00375824 0
-0.000601545 0.000408969 0
0.000195846 0.00264706 0
0.000141441 0.00210184 0
-0.000872185 0.00313944 0
-0.0038643 0.00935494 0
-0.00896046 0.0146523 0
-0.0154927 0.01882 0
-0.0229974 0.0219527 0
-0.0311556 0.0242212 0
-0.0397277 0.0257521 0
-0.0485042 0.0265905 0
-0.0572764 0.0267098 0
-0.0658232 0.026041 0
-0.0739098 0.024505 0
-0.0812932 0.0220388 0
-0.08773 0.0186148 0
-0.0929861 0.0142537 0
-0.096845 0.0090325 0
-0.0991164 0.0030883 0
-0.0996439 -0.00338035 0
-0.0983087 -0.0101246 0
-0.0950353 -0.0168315 0
-0.0898116 -0.0231107 0
-0.0827143 -0.0285188 0
-0.0739312 -0.0325925 0
-0.0637795 -0.0348948 0
-0.0527148 -0.0350779 0
-0.0413248 -0.0329602 0
-0.0302963 -0.0286114 0
-0.0203465 -0.0224245 0
-0.0121165 -0.0151423 0
-0.00604102 -0.00780967 0
-0.00223294 -0.0016476 0
-0.000424172 0.00209747 0
1.91915e-05 0.00226247 0
-0.00110227 0.0051139 0
-0.00480866 0.014079 0
-0.0109928 0.0212086 0
-0.0187779 0.026581 0
-0.0275903 0.0305088 0
-0.0370596 0.0332925 0
-0.0469243 0.0351176 0
-0.0569657 0.036043 0
-0.0669702 0.0360341 0
-0.0767147 0.0350079 0
-0.0859635 0.0328735 0
-0.0944728 0.029563 0
-0.101997 0.0250516 0
-0.108295 0.0193709 0
-0.113137 0.012616 0
-0.11631 0.00494893 0
-0.117623 -0.00339983 0
-0.116916 -0.0121475 0
-0.114058 -0.0209401 0
-0.10897 -0.0293135 0
-0.101661 -0.0367229 0
-0.0922534 -0.042579 0
-0.0810158 -0.0462976 0
-0.0683839 -0.0473717 0
-0.0549717 -0.0454687 0
-0.041555 -0.0405482 0
-0.0290121 -0.0329803 0
-0.0182071 -0.0236214 0
-0.00982217 -0.0137909 0
-0.00418334 -0.00511328 0
-0.00115092 0.000721967 0
-0.000118985 0.00216267 0
-0.0013151 0.00753128 0
-0.00567718 0.0197301 0
-0.0128533 0.0289178 0
-0.0217763 0.0355799 0
-0.0317754 0.0403212 0
-0.0424375 0.0436114 0
-0.0534866 0.0457125 0
-0.0647021 0.0467049 0
-0.0758744 0.0465491 0
-0.0867863 0.0451493 0
-0.0972086 0.0424032 0
-0.106901 0.0382355 0
-0.115618 0.0326198 0
-0.123108 0.025591 0
-0.129123 0.0172527 0
-0.13342 0.00778132 0
-0.135766 -0.00257217 0
-0.135952 -0.0134959 0
-0.13379 -0.0246125 0
-0.129126 -0.0353921 0
-0.121889 -0.0451914 0
-0.112118 -0.0532889 0
-0.100007 -0.0589358 0
-0.0859412 -0.0614314 0
-0.0705269 -0.0602355 0
-0.0546044 -0.0551206 0
-0.0392091 -0.0463462 0
-0.0254585 -0.0348112 0
-0.0143511 -0.0220934 0
-0.00651477 -0.0102859 0
-0.00200785 -0.00164475 0
-0.000277038 0.00176665 0
-0.0014997 0.0103461 0
-0.00642808 0.0262057 0
-0.0144587 0.0376489 0
-0.0243629 0.045676 0
-0.0353893 0.0512507 0
-0.0470924 0.0550472 0
-0.059188 0.0574215 0
-0.0714597 0.0584831 0
-0.083708 0.0581914 0
-0.0957274 0.0564385 0
-0.107299 0.0531084 0
-0.118191 0.0481143 0
-0.128153 0.0414203 0
-0.136927 0.0330549 0
-0.144243 0.023119 0
-0.149823 0.011792 0
-0.153395 -0.00066473 0
-0.154699 -0.0139123 0
-0.153492 -0.027566 0
-0.14955 -0.0410443 0
-0.142712 -0.0536147 0
-0.132921 -0.0644276 0
-0.120268 -0.0725612 0
-0.105046 -0.0770938 0
-0.0878099 -0.0772236 0
-0.0694167 -0.0724482 0
-0.0510284 -0.0628022 0
-0.0340234 -0.0491108 0
-0.0197786 -0.0331461 0
-0.00933084 -0.0175173 0
-0.003043 -0.00520811 0
-0.000466709 0.0010229 0
-0.001645 0.0134908 0
-0.00702053 0.0333649 0
-0.0157298 0.0472296 0
-0.0264196 0.0566892 0
-0.0382769 0.0631212 0
-0.0508321 0.0674348 0
-0.0637979 0.0700952 0
-0.076966 0.0712492 0
-0.0901504 0.070858 0
-0.103161 0.0688019 0
-0.115792 0.0649484 0
-0.12782 0.0591928 0
-0.138997 0.0514815 0
-0.149055 0.0418261 0
-0.157706 0.0303141 0
-0.164646 0.0171174 0
-0.169564 0.00249979 0
-0.172158 -0.0131785 0
-0.172136 -0.0295294 0
-0.169214 -0.0459445 0
-0.163145 -0.0616211 0
-0.153761 -0.0755968 0
-0.141024 -0.0867826 0
-0.125095 -0.0940231 0
-0.106415 -0.0962099 0
-0.0857922 -0.0924778 0
-0.0644534 -0.0824998 0
-0.0440107 -0.066861 0
-0.0262576 -0.0473938 0
-0.0127553 -0.0272197 0
-0.00431855 -0.0102304 0
-0.000702944 -0.00014675 0
-0.00174075 0.0168765 0
-0.00741736 0.0410313 0
-0.0165952 0.0574504 0
-0.0278401 0.0684032 0
-0.040296 0.0757205 0
-0.0534755 0.0805702 0
-0.0670907 0.0835408 0
-0.0809428 0.0848238 0
-0.0948608 0.0843859 0
-0.108671 0.0820953 0
-0.122185 0.0778 0
-0.135188 0.0713717 0
-0.14744 0.0627314 0
-0.158671 0.0518653 0
-0.168583 0.0388383 0
-0.176856 0.023806 0
-0.183153 0.00702681 0
-0.187136 -0.011129 0
-0.188481 -0.0302562 0
-0.186864 -0.0497567 0
-0.181955 -0.0687867 0
-0.173472 -0.0862993 0
-0.161227 -0.101062 0
-0.145206 -0.111693 0
-0.125674 -0.116751 0
-0.103304 -0.11493 0
-0.0792952 -0.105395 0
-0.0554242 -0.0882795 0
-0.0338982 -0.0652542 0
-0.0169065 -0.0398533 0
-0.00590095 -0.0170391 0
-0.00100244 -0.00185213 0
-0.00177864 0.0203959 0
-0.00758848 0.0489984 0
-0.016997 0.0680697 0
-0.0285369 0.0805687 0
-0.0413264 0.0888004 0
-0.054865 0.0942083 0
-0.0688633 0.0975162 0
-0.083131 0.0989681 0
-0.0975117 0.0985403 0
-0.11185 0.0960896 0
-0.125973 0.0914423 0
-0.139683 0.084443 0
-0.152754 0.0749821 0
-0.164923 0.0630149 0
-0.175899 0.0485772 0
-0.185361 0.0318015 0
-0.192964 0.012932 0
-0.198351 -0.00766388 0
-0.201184 -0.029543 0
-0.201113 -0.0521583 0
-0.197746 -0.0746612 0
-0.19069 -0.0959638 0
-0.179599 -0.114734 0
-0.164247 -0.129394 0
-0.144657 -0.138172 0
-0.121272 -0.139265 0
-0.095149 -0.131191 0
-0.0681132 -0.11339 0
-0.0427271 -0.0870558 0
-0.0218745 -0.055896 0
-0.0078528 -0.0260237 0
-0.00138216 -0.00423673 0
-0.0017534 0.023928 0
-0.00751454 0.0570373 0
-0.0168968 0.0788214 0
-0.0284498 0.0929098 0
-0.0412828 0.102082 0
-0.0548833 0.108066 0
-0.0689579 0.111732 0
-0.0833216 0.113384 0
-0.0978306 0.113014 0
-0.112347 0.11047 0
-0.126718 0.105556 0
-0.140768 0.0980895 0
-0.15429 0.0879283 0
-0.167047 0.0749949 0
-0.178767 0.0592935 0
-0.18915 0.0409293 0
-0.197868 0.0201253 0
-0.204574 -0.00276319 0
-0.208929 -0.0272564 0
-0.210571 -0.0528741 0
-0.209075 -0.078808 0
-0.203962 -0.103987 0
-0.194722 -0.127042 0
-0.180897 -0.146263 0
-0.16221 -0.159579 0
-0.138779 -0.164674 0
-0.111384 -0.159301 0
-0.081745 -0.141956 0
-0.052657 -0.112964 0
-0.027702 -0.0757949 0
-0.0102268 -0.0376216 0
-0.00185865 -0.00747754 0
-0.00166384 0.0273452 0
-0.00719019 0.0649075 0
-0.0162819 0.0894251 0
-0.0275556 0.105133 0
-0.0401266 0.115263 0
-0.0534705 0.121829 0
-0.0672854 0.125858 0
-0.0813869 0.127723 0
-0.0956412 0.127439 0
-0.109927 0.124848 0
-0.124115 0.119737 0
-0.138055 0.111898 0
-0.151574 0.10116 0
-0.164468 0.0874142 0
-0.176508 0.0706346 0
-0.187436 0.0508985 0
-0.196965 0.0284038 0
-0.204787 0.00348684 0
-0.210575 -0.023364 0
-0.213985 -0.0517146 0
-0.214598 -0.0808498 0
-0.211873 -0.109784 0
-0.205158 -0.137199 0
-0.193753 -0.161336 0
-0.177041 -0.179904 0
-0.154725 -0.190095 0
-0.127169 -0.188831 0
-0.0958028 -0.173431 0
-0.0634703 -0.14291 0
-0.03437 -0.0999049 0
-0.0130602 -0.0522967 0
-0.00244726 -0.0117835 0
-0.00151349 0.0305225 0
-0.00662666 0.0723697 0
-0.0151701 0.099598 0
-0.0258747 0.116938 0
-0.0378764 0.12803 0
-0.0506383 0.135168 0
-0.0638444 0.13954 0
-0.0773058 0.141604 0
-0.0908958 0.141402 0
-0.10451 0.138783 0
-0.118042 0.133522 0
-0.131376 0.125388 0
-0.144377 0.11419 0
-0.156892 0.0997937 0
-0.168747 0.08215 0
-0.179748 0.0613116 0
-0.189678 0.0374503 0
-0.198289 0.0108737 0
-0.205294 -0.017958 0
-0.210396 -0.0486087 0
-0.213222 -0.0805166 0
-0.213209 -0.112855 0
-0.209599 -0.144454 0
-0.201463 -0.173623 0
-0.187826 -0.197966 0
-0.167909 -0.214266 0
-0.141522 -0.218603 0
-0.109609 -0.206939 0
-0.0748185 -0.176525 0
-0.0417891 -0.12842 0
-0.016371 -0.0705097 0
-0.00316188 -0.0173926 0
-0.00131094 0.033347 0
-0.00585306 0.0792006 0
-0.0136129 0.10907 0
-0.0234767 0.128034 0
-0.0346151 0.140074 0
-0.0464787 0.147749 0
-0.0587324 0.152418 0
-0.0711783 0.154633 0
-0.0836937 0.154479 0
-0.09619 0.151817 0
-0.108589 0.146419 0
-0.120809 0.138045 0
-0.132763 0.126488 0
-0.144354 0.111601 0
-0.155476 0.0933197 0
-0.166015 0.0716815 0
-0.175841 0.0468364 0
-0.1848 0.0190575 0
-0.192687 -0.0112501 0
-0.199276 -0.0436251 0
-0.204262 -0.0776885 0
-0.207115 -0.112842 0
-0.207023 -0.148169 0
-0.202875 -0.182192 0
-0.193346 -0.212562 0
-0.177136 -0.235798 0
-0.153393 -0.247201 0
-0.122368 -0.241278 0
-0.0862374 -0.213105 0
-0.0497992 -0.161307 0
-0.0201571 -0.0926827 0
-0.00401567 -0.0245701 0
-0.00106964 0.0357275 0
-0.00491645 0.085209 0
-0.0116959 0.117601 0
-0.0204815 0.138153 0
-0.0304919 0.151105 0
-0.0411664 0.159257 0
-0.052148 0.164146 0
-0.0632263 0.166429 0
-0.0742812 0.166252 0
-0.085241 0.1635 0
-0.0960564 0.157951 0
-0.106686 0.149364 0
-0.117093 0.13753 0
-0.12724 0.122297 0
-0.137095 0.1036 0
-0.146629 0.0814734 0
-0.155814 0.0560558 0
-0.16461 0.0275927 0
-0.17294 -0.00356868 0
-0.180671 -0.0369855 0
-0.187583 -0.072431 0
-0.193239 -0.10959 0
-0.196846 -0.147907 0
-0.197178 -0.18627 0
-0.192615 -0.222576 0
-0.181335 -0.253275 0
-0.161749 -0.273054 0
-0.133231 -0.274968 0
-0.0971768 -0.2516 0
-0.0581774 -0.19825 0
-0.0243985 -0.11916 0
-0.0050233 -0.0336091 0
-0.000807423 0.0376046 0
-0.00388063 0.0902519 0
-0.00953829 0.124995 0
-0.0170588 0.147065 0
-0.0257201 0.160864 0
-0.0349544 0.169406 0
-0.0443826 0.174406 0
-0.0537817 0.176646 0
-0.063035 0.176344 0
-0.0720899 0.173423 0
-0.0809295 0.167682 0
-0.0895561 0.15889 0
-0.0979847 0.14684 0
-0.106241 0.131391 0
-0.114366 0.112486 0
-0.122415 0.0901708 0
-0.130463 0.0645907 0
-0.138589 0.0359799 0
-0.146855 0.00463994 0
-0.15525 -0.0290671 0
-0.163676 -0.0650122 0
-0.171837 -0.103191 0
-0.179038 -0.143499 0
-0.184038 -0.185346 0
-0.185011 -0.22709 0
-0.179672 -0.26538 0
-0.165668 -0.294539 0
-0.141354 -0.306315 0
-0.107037 -0.290623 0
-0.0666531 -0.238611 0
-0.0290654 -0.150167 0
-0.00620545 -0.0448379 0
-0.000545686 0.0389577 0
-0.0028245 0.0942508 0
-0.00729054 0.13112 0
-0.0134249 0.154595 0
-0.0205722 0.169143 0
-0.0281648 0.177955 0
-0.0358065 0.182928 0
-0.0432654 0.184983 0
-0.0504323 0.184428 0
-0.0572787 0.181241 0
-0.0638248 0.17525 0
-0.0701206 0.166244 0
-0.0762368 0.154031 0
-0.0822622 0.138482 0
-0.0883057 0.119563 0
-0.0945007 0.0973386 0
-0.10101 0.0719791 0
-0.10802 0.0437286 0
-0.115724 0.0128613 0
-0.124252 -0.0203651 0
-0.133654 -0.0558876 0
-0.143807 -0.094 0
-0.154193 -0.135103 0
-0.163676 -0.179258 0
-0.170366 -0.225515 0
-0.171633 -0.271027 0
-0.164416 -0.310113 0
-0.145962 -0.333511 0
-0.115207 -0.328499 0
-0.0749248 -0.2814 0
-0.0341296 -0.18576 0
-0.00759546 -0.0586388 0
-0.000308885 0.0398123 0
-0.00184068 0.0972069 0
-0.00513259 0.135922 0
-0.00983951 0.160635 0
-0.0153735 0.175785 0
-0.0211776 0.184709 0
-0.0268499 0.189487 0
-0.0321596 0.191192 0
-0.0370138 0.19024 0
-0.0414157 0.186677 0
-0.0454293 0.180374 0
-0.0491574 0.171144 0
-0.0527299 0.158819 0
-0.0562988 0.143289 0
-0.0600383 0.124539 0
-0.064148 0.102667 0
-0.0688588 0.0778709 0
-0.0744364 0.0504253 0
-0.0811726 0.0206049 0
-0.0893427 -0.0114107 0
-0.0991426 -0.045641 0
-0.110623 -0.0826124 0
-0.123506 -0.123221 0
-0.136894 -0.168268 0
-0.149015 -0.217694 0
-0.157093 -0.269503 0
-0.157498 -0.318449 0
-0.146381 -0.354746 0
-0.12108 -0.36332 0
-0.0826693 -0.325271 0
-0.0395738 -0.22578 0
-0.00924614 -0.0754804 0
-0.000124697 0.0402459 0
-0.00103632 0.0992167 0
-0.00327481 0.139443 0
-0.00660509 0.165151 0
-0.0104968 0.180694 0
-0.0144183 0.189526 0
-0.0179828 0.193907 0
-0.0209787 0.195077 0
-0.0233442 0.193574 0
-0.0251255 0.189525 0
-0.0264386 0.182852 0
-0.0274443 0.1734 0
-0.0283348 0.161026 0
-0.0293268 0.145642 0
-0.0306581 0.127256 0
-0.0325877 0.105989 0
-0.0353989 0.0820706 0
-0.0394043 0.0558086 0
-0.0449497 0.0275031 0
-0.0524009 -0.00268774 0
-0.0620695 -0.0348954 0
-0.07416 -0.0697867 0
-0.0886548 -0.108669 0
-0.105008 -0.15308 0
-0.121776 -0.203994 0
-0.136309 -0.260593 0
-0.14467 -0.318593 0
-0.142047 -0.368342 0
-0.124052 -0.39302 0
-0.08953 -0.368503 0
-0.0453887 -0.269785 0
-0.0112328 -0.0959593 0
-2.59783e-05 0.0403966 0
-0.000538757 0.10049 0
-0.00196487 0.141834 0
-0.00407017 0.168196 0
-0.0063588 0.183829 0
-0.00834658 0.1923 0
-0.00969452 0.196046 0
-0.0102396 0.196479 0
-0.00997345 0.194271 0
-0.00900121 0.189637 0
-0.00750024 0.182552 0
-0.0056941 0.172899 0
-0.00384 0.160563 0
-0.00222016 0.145477 0
-0.0011352 0.127668 0
-0.000900316 0.107272 0
-0.00184248 0.0845405 0
-0.00429919 0.0598009 0
-0.00862144 0.0333785 0
-0.0151798 0.00544647 0
-0.0243341 -0.0242067 0
-0.0363887 -0.0563302 0
-0.051546 -0.0924737 0
-0.0696701 -0.134799 0
-0.0898475 -0.185329 0
-0.109878 -0.244694 0
-0.125903 -0.310107 0
-0.132462 -0.372892 0
-0.123471 -0.415455 0
-0.0950683 -0.408994 0
-0.0515448 -0.316959 0
-0.0136468 -0.120839 0
-5.62437e-05 0.0404788 0
-0.000510336 0.101375 0
-0.00150473 0.143369 0
-0.00263967 0.1699 0
-0.00341968 0.185193 0
-0.0034428 0.192946 0
-0.00246876 0.195773 0
-0.000426042 0.195254 0
0.0026086 0.192196 0
0.00645109 0.186898 0
0.0108492 0.179392 0
0.0155065 0.169596 0
0.0200981 0.157421 0
0.0242789 0.142819 0
0.0276912 0.125829 0
0.0299724 0.106595 0
0.0307647 0.0853675 0
0.0297261 0.0624693 0
0.0265373 0.0382212 0
0.0208989 0.0128005 0
0.012496 -0.0140035 0
0.00099557 -0.0429783 0
-0.0139529 -0.0757199 0
-0.0325751 -0.114806 0
-0.0545981 -0.163121 0
-0.0786027 -0.222866 0
-0.101302 -0.293211 0
-0.117112 -0.36742 0
-0.118532 -0.428497 0
-0.0986588 -0.444228 0
-0.0579209 -0.365986 0
-0.0165724 -0.151058 0
-0.000281827 0.0408168 0
-0.00117914 0.102388 0
-0.002283 0.144454 0
-0.00279229 0.17046 0
-0.00217932 0.184801 0
-0.000184487 0.191367 0
0.00326096 0.192933 0
0.00806847 0.191244 0
0.0140248 0.187215 0
0.0208452 0.181216 0
0.0281963 0.173325 0
0.0357126 0.16349 0
0.0430085 0.15164 0
0.0496857 0.137742 0
0.0553419 0.121838 0
0.059581 0.104066 0
0.062028 0.0846571 0
0.0623446 0.0639015 0
0.0602426 0.0420798 0
0.0554832 0.0193397 0
0.0478461 -0.00450258 0
0.0370932 -0.030226 0
0.0229405 -0.0593711 0
0.00496831 -0.0945606 0
-0.0172388 -0.139136 0
-0.0432793 -0.196806 0
-0.0709618 -0.26889 0
-0.0953359 -0.351557 0
-0.108115 -0.430161 0
-0.0993114 -0.471241 0
-0.0641682 -0.414854 0
-0.0200383 -0.187669 0
-0.000816011 0.0419147 0
-0.00289407 0.104266 0
-0.00482318 0.14561 0
-0.00509629 0.170087 0
-0.00315988 0.182625 0
0.000990669 0.187398 0
0.00712927 0.187318 0
0.0149252 0.184256 0
0.0239904 0.179181 0
0.0339183 0.172501 0
0.044292 0.164315 0
0.0546856 0.154589 0
0.0646678 0.143262 0
0.0738059 0.130304 0
0.0816735 0.115752 0
0.0878626 0.0997239 0
0.0920002 0.0824148 0
0.0937656 0.0640617 0
0.0929058 0.0448815 0
0.0892357 0.0249674 0
0.0826132 0.00412937 0
0.0728651 -0.018357 0
0.0597344 -0.0439566 0
0.0428341 -0.0751026 0
0.0216541 -0.115207 0
-0.00437058 -0.16867 0
-0.0347798 -0.238934 0
-0.0661719 -0.325747 0
-0.0905747 -0.41879 0
-0.0954003 -0.48659 0
-0.0694825 -0.460566 0
-0.0239313 -0.231638 0
-0.0018623 0.044593 0
-0.00620738 0.108011 0
-0.00982625 0.147413 0
-0.0101818 0.168912 0
-0.00682599 0.178507 0
-0.000212721 0.180752 0
0.00898015 0.178633 0
0.020091 0.174035 0
0.0325222 0.167907 0
0.0457378 0.160633 0
0.0592462 0.152302 0
0.07258 0.142875 0
0.0852855 0.132288 0
0.0969213 0.120504 0
0.107063 0.107542 0
0.115316 0.0934911 0
0.12133 0.078496 0
0.124817 0.0627287 0
0.12556 0.0463313 0
0.123417 0.0293305 0
0.118294 0.011512 0
0.110075 -0.00777307 0
0.0985196 -0.0298543 0
0.0832152 -0.0570001 0
0.0635494 -0.0924638 0
0.0386755 -0.140514 0
0.00782798 -0.205833 0
-0.0281824 -0.291445 0
-0.0634999 -0.39337 0
-0.0842879 -0.486396 0
-0.072237 -0.498729 0
-0.027847 -0.283416 0
-0.00377968 0.050235 0
-0.011952 0.114886 0
-0.0181038 0.150308 0
-0.0185108 0.166779 0
-0.0132361 0.172009 0
-0.00352137 0.170922 0
0.00933113 0.166418 0
0.024257 0.160213 0
0.0404346 0.153119 0
0.0572172 0.145422 0
0.0740666 0.137155 0
0.0905042 0.128251 0
0.106086 0.118626 0
0.120391 0.108225 0
0.133028 0.0970427 0
0.143638 0.0851274 0
0.151913 0.0725699 0
0.157608 0.0594739 0
0.160543 0.0459076 0
0.160606 0.0318342 0
0.157724 0.0170139 0
0.151804 0.00086281 0
0.142609 -0.0177388 0
0.129677 -0.0408793 0
0.11226 -0.0715017 0
0.0892009 -0.113544 0
0.0590396 -0.171795 0
0.0207722 -0.251205 0
-0.0234962 -0.354025 0
-0.061844 -0.466606 0
-0.0693956 -0.523018 0
-0.0308247 -0.342088 0
-0.00713713 0.0611518 0
-0.021135 0.12614 0
-0.0300366 0.154108 0
-0.0294735 0.162823 0
-0.0209099 0.162127 0
-0.00682424 0.157004 0
0.0107237 0.149935 0
0.0302648 0.142229 0
0.0507971 0.134394 0
0.0716221 0.126539 0
0.0922072 0.118603 0
0.112107 0.110465 0
0.130923 0.102014 0
0.148289 0.0931658 0
0.163869 0.0838851 0
0.177365 0.0741788 0
0.188524 0.0640847 0
0.197143 0.0536449 0
0.203078 0.0428665 0
0.206225 0.0316656 0
0.206498 0.0197917 0
0.203778 0.00672419 0
0.197841 -0.00846736 0
0.188174 -0.0275524 0
0.173823 -0.0530599 0
0.153287 -0.0883904 0
0.124461 -0.137961 0
0.0849963 -0.207308 0
0.0339613 -0.302619 0
-0.0219023 -0.4238 0
-0.0555514 -0.524623 0
-0.0308463 -0.403759 0
-0.012545 0.080834 0
-0.0338948 0.141805 0
-0.0433161 0.156766 0
-0.0383354 0.154622 0
-0.0233431 0.146772 0
-0.00244461 0.137374 0
0.0215924 0.12798 0
0.0470589 0.119177 0
0.0729429 0.11103 0
0.0986088 0.103413 0
0.123608 0.0961445 0
0.147585 0.0890472 0
0.170229 0.0819725 0
0.191258 0.0748124 0
0.210414 0.0675012 0
0.227471 0.0600097 0
0.242235 0.0523323 0
0.254547 0.0444652 0
0.264283 0.0363753 0
0.271336 0.0279571 0
0.275588 0.018975 0
0.276867 0.00898241 0
0.274875 -0.00279703 0
0.269023 -0.0177035 0
0.25818 -0.0377144 0
0.240491 -0.0655106 0
0.213248 -0.104771 0
0.172983 -0.160768 0
0.116366 -0.241508 0
0.044309 -0.35699 0
-0.0213049 -0.49217 0
-0.0238086 -0.458414 0
-0.0191499 0.112529 0
-0.0443993 0.156709 0
-0.0446832 0.151567 0