# vtk DataFile Version 2.0
Lid-driven cavity
ASCII
DATASET STRUCTURED_POINTS
DIMENSIONS 32 32 1
ORIGIN 0.015625 0.015625 0
SPACING 0.03125 0.03125 1
POINT_DATA 1024
SCALARS pressure double 1
LOOKUP_TABLE default
16.2545
16.1721
16.0465
15.9242
15.8308
15.7781
15.7707
15.8112
15.9026
16.0487
16.2542
16.5232
16.858
17.2579
17.7177
18.2269
18.7691
19.3225
19.8597
20.3495
20.7612
21.0681
21.2521
21.3073
21.2419
21.0777
20.8469
20.5883
20.3423
20.1465
20.0315
20.011
16.3369
16.2515
16.1497
16.0568
15.9889
15.9544
15.9579
16.0028
16.0923
16.2307
16.4221
16.6706
16.9782
17.3447
17.7653
18.2309
18.7265
19.2331
19.7255
20.1753
20.5544
20.8386
21.0118
21.0695
21.02
20.8841
20.6913
20.4755
20.2707
20.1069
20.0081
19.9905
16.4664
16.3468
16.2416
16.1592
16.105
16.0815
16.0906
16.1347
16.217
16.3419
16.5142
16.7385
17.0181
17.3537
17.7425
18.1769
18.6438
19.1252
19.597
20.0312
20.3995
20.6772
20.8479
20.9066
20.8615
20.7334
20.5516
20.3492
20.1569
20.0011
19.9024
19.8769
16.5905
16.4246
16.302
16.2177
16.167
16.1463
16.1537
16.1899
16.2577
16.3621
16.5087
16.7038
16.9525
17.2579
17.6194
18.0318
18.4838
18.9575
19.4289
19.8689
20.2472
20.5364
20.7172
20.7825
20.7392
20.6082
20.42
20.2088
20.0062
19.8377
19.7224
19.675
16.6652
16.4502
16.304
16.2101
16.1548
16.1283
16.1252
16.1445
16.1888
16.2635
16.3761
16.5347
16.7472
17.0196
17.3546
17.7498
18.1964
18.6761
19.1647
19.6314
20.0422
20.3653
20.576
20.6623
20.6279
20.4927
20.2888
20.0534
19.8218
19.6219
19.474
19.3929
16.6516
16.3887
16.217
16.1088
16.0418
16.0009
15.9776
15.9695
15.9791
16.0128
16.08
16.1914
16.3583
16.5903
16.8941
17.2712
17.7163
18.2113
18.7324
19.2469
19.7167
20.1029
20.3728
20.5059
20.4994
20.3695
20.149
19.8797
19.6034
19.3547
19.1586
19.0331
16.5133
16.2056
16.0083
15.8823
15.7973
15.7332
15.6789
15.6311
15.5925
15.5707
15.5771
15.6258
15.7318
15.9092
16.1697
16.5197
16.9588
17.4721
18.0375
18.6212
19.1804
19.6675
20.0382
20.2589
20.3146
20.2137
19.9869
19.6809
19.3474
19.0327
18.7718
18.5901
16.2152
15.8666
15.6445
15.4977
15.3881
15.2913
15.194
15.0921
14.9885
14.8924
14.8175
14.7812
14.803
14.9026
15.0974
15.4006
15.8184
16.3433
16.9583
17.6304
18.3124
18.947
19.4742
19.8415
20.0145
19.986
19.7792
19.4442
19.0458
18.6485
18.3045
18.0512
15.724
15.3394
15.093
14.922
14.7807
14.6406
14.4863
14.3129
14.1239
13.9295
13.7459
13.5942
13.4986
13.4854
13.5796
13.8028
14.1697
14.6859
15.3448
16.118
16.956
17.7912
18.5449
19.1389
19.5099
19.6238
19.4871
19.1478
18.6854
18.1902
17.7417
17.3971
15.0098
14.5944
14.3241
14.1247
13.9434
13.7477
13.5201
13.255
12.9556
12.6331
12.3059
11.9986
11.7412
11.5672
11.5113
11.6057
11.8765
12.3446
13.0252
13.8998
14.9205
16.0109
17.072
17.9936
18.6723
19.0327
19.0489
18.756
18.2457
17.642
17.0653
16.6044
14.0473
13.6071
13.313
13.0802
12.8493
12.5839
12.2646
11.8841
11.4451
10.959
10.4459
9.93386
9.45875
9.06274
8.79185
8.69229
8.80559
9.16464
9.82239
10.7787
11.9936
13.3866
14.8391
16.2047
17.3291
18.0783
18.3723
18.2138
17.6967
16.9841
16.2544
15.6461
12.8185
12.3601
12.042
11.7699
11.4789
11.1287
10.6974
10.1757
9.5647
8.87526
8.12817
7.35469
6.59673
5.90596
5.34166
4.96673
4.84168
5.01692
5.57956
6.5711
7.96733
9.69091
11.6089
13.539
15.2678
16.5848
17.3293
17.4415
16.9961
16.1926
15.2874
14.4945
11.3147
10.8452
10.5026
10.1854
9.82346
9.37321
8.80957
8.12042
7.30432
6.37032
5.33905
4.24415
3.13331
2.06825
1.12299
0.379697
-0.0783727
-0.177115
0.193654
1.14389
2.6754
4.72512
7.15607
9.75631
12.2522
14.3423
15.7562
16.3318
16.0868
15.2409
14.1447
13.1248
9.53769
9.06446
8.69747
8.32994
7.88767
7.32371
6.60953
5.72932
4.67793
3.46138
2.09889
0.625382
-0.906318
-2.4245
-3.83958
-5.04815
-5.94056
-6.41267
-6.34631
-5.5436
-3.96081
-1.63338
1.31294
4.65116
8.05545
11.1284
13.4643
14.7522
14.8972
14.1008
12.8136
11.5199
7.50077
7.03138
6.64106
6.22
5.69098
5.00385
4.12625
3.03782
1.72859
0.200271
-1.5307
-3.42942
-5.43907
-7.47872
-9.44343
-11.2078
-12.6335
-13.5822
-13.927
-13.4009
-11.8873
-9.38067
-5.9766
-1.89491
2.50695
6.74454
10.2628
12.5562
13.3458
12.7476
11.2946
9.67828
5.22826
4.77004
4.35907
3.88479
3.26794
2.45529
1.41024
0.107175
-1.46971
-3.32424
-5.44409
-7.79583
-10.3202
-12.9283
-15.5013
-17.8925
-19.9354
-21.4571
-22.2977
-22.1831
-20.8861
-18.3454
-14.6079
-9.85819
-4.45238
1.06557
5.99668
9.6067
11.3532
11.1681
9.61209
7.62526
2.7537
2.31326
1.88663
1.36461
0.666594
-0.263782
-1.4678
-2.97705
-4.81401
-6.98905
-9.49517
-12.3018
-15.3488
-18.5415
-21.7488
-24.8054
-27.5183
-29.681
-31.0936
-31.4972
-30.5694
-28.1717
-24.2853
-19.0299
-12.7179
-5.90607
0.594672
5.81133
8.86424
9.37561
7.82895
5.42862
0.116689
-0.300681
-0.73507
-1.29256
-2.05487
-3.08208
-4.42089
-6.10963
-8.17822
-10.6444
-13.5073
-16.7404
-20.2842
-24.0401
-27.8678
-31.5864
-34.9807
-37.8142
-39.8484
-40.8346
-40.4065
-38.3365
-34.5248
-29.0008
-21.9879
-13.9935
-5.87962
1.16766
5.88087
7.43285
6.06862
3.22169
-2.64146
-3.0326
-3.46344
-4.03564
-4.83279
-5.92019
-7.35147
-9.17278
-11.4222
-14.1254
-17.2883
-20.8889
-24.8693
-29.1292
-33.5216
-37.854
-41.8945
-45.3832
-48.0507
-49.6382
-49.7891
-48.208
-44.699
-39.1862
-31.7639
-22.8216
-13.1861
-4.18928
2.5046
5.48627
4.54678
1.23756
-5.48304
-5.84795
-6.25998
-6.81581
-7.60334
-8.69636
-10.1582
-12.0446
-14.4027
-17.2664
-20.6482
-24.5309
-28.8588
-33.5307
-38.3956
-43.2534
-47.8607
-51.9425
-55.2089
-57.3759
-58.1246
-57.1345
-54.1213
-48.8947
-41.3943
-31.8287
-20.8897
-9.94699
-1.01562
3.8123
3.61832
-0.138293
-8.38016
-8.72316
-9.09631
-9.59205
-10.3078
-11.332
-12.7425
-14.6074
-16.9841
-19.9144
-23.4171
-27.4787
-32.0452
-37.0153
-42.2356
-47.5016
-52.5635
-57.1377
-60.9236
-63.6204
-64.9313
-64.551
-62.1539
-57.4299
-50.1583
-40.321
-28.3762
-15.595
-4.23736
2.87647
3.84566
-0.286971
-11.322
-11.653
-11.9605
-12.3361
-12.8967
-13.7561
-15.014
-16.7552
-19.0481
-21.9421
-25.46
-29.5905
-34.28
-39.4265
-44.8756
-50.4208
-55.8096
-60.7556
-64.9544
-68.1003
-69.8989
-70.0752
-68.3113
-64.203
-57.3738
-47.5597
-34.9047
-20.433
-6.49035
3.40108
6.09314
1.76368
-14.324
-14.6597
-14.8638
-15.0364
-15.3322
-15.9073
-16.8944
-18.399
-20.5014
-23.2564
-26.6879
-30.7846
-35.4917
-40.7046
-46.2666
-51.9694
-57.5605
-62.7541
-67.2478
-70.7378
-72.9291
-73.5576
-72.3347
-68.8222
-62.5004
-52.8627
-39.6877
-23.611
-6.86426
6.43218
11.6465
7.5048
-17.4427
-17.8062
-17.8484
-17.7009
-17.5886
-17.7347
-18.3186
-19.4715
-21.2854
-23.8161
-27.085
-31.0748
-35.7245
-40.924
-46.5118
-52.2773
-57.9673
-63.298
-67.9709
-71.6872
-74.1576
-75.1039
-74.2265
-71.1315
-65.2039
-55.6835
-41.9718
-24.1895
-4.2252
13.3896
22.346
19.1574
-20.8023
-21.2182
-20.9985
-20.3591
-19.6493
-19.1948
-19.2363
-19.9299
-21.3726
-23.6152
-26.6691
-30.5055
-35.0524
-40.1904
-45.7512
-51.52
-57.2419
-62.6343
-67.4009
-71.2456
-73.8814
-75.0211
-74.3106
-71.3064
-65.3667
-55.638
-41.0888
-21.1972
2.74236
26.0801
40.7089
39.919
-24.6517
-25.1261
-24.457
-23.0612
-21.5013
-20.2457
-19.6038
-19.7448
-20.7584
-22.6785
-25.4966
-29.1653
-33.5965
-38.6583
-44.1731
-49.9203
-55.6423
-61.0549
-65.8602
-69.7585
-72.4545
-73.6508
-72.9409
-69.76
-63.3557
-52.6567
-36.4578
-13.656
15.4846
46.6534
70.0035
74.2334
-29.4939
-29.9464
-28.4509
-25.874
-23.1233
-20.839
-19.3821
-18.9068
-19.4693
-21.0688
-23.6651
-27.1843
-31.5174
-36.517
-41.9947
-47.7229
-53.4393
-58.8558
-63.6684
-67.5653
-70.2302
-71.3332
-70.4464
-66.8125
-59.4732
-47.0764
-27.9629
-0.57085
35.5361
77.4787
114.218
128.077
-36.3957
-36.4371
-33.3141
-28.8492
-24.449
-20.8943
-18.5234
-17.4142
-17.55
-18.8716
-21.2941
-24.7103
-28.9868
-33.9587
-39.4261
-45.1533
-50.8726
-56.2897
-61.0897
-64.9414
-67.4941
-68.3618
-67.0862
-62.6952
-53.9119
-39.011
-15.7561
18.2205
64.3974
120.897
177.811
209.264
-47.759
-45.9325
-39.4101
-31.8747
-25.2445
-20.2109
-16.903
-15.2143
-15.0077
-16.1405
-18.4716
-21.8561
-26.1352
-31.1265
-36.6187
-42.3684
-48.1019
-53.517
-58.2855
-62.051
-64.4178
-64.9268
-63.0103
-57.5446
-46.7949
-28.5686
0.0587929
42.5007
101.895
178.812
264.946
327.754
-69.2631
-60.288
-46.4918
-34.1089
-24.7313
-18.2011
-14.0885
-12.0125
-11.6563
-12.7702
-15.1508
-18.6161
-22.9844
-28.0595
-33.6218
-39.4226
-45.1835
-50.5952
-55.315
-58.9579
-61.0763
-61.1205
-58.3731
-51.5103
-38.3663
-16.2398
18.5546
70.7459
145.972
249.608
379.757
495.478
-114.023
-78.9024
-50.9316
-32.2285
-20.3377
-13.018
-8.84988
-6.99883
-6.95904
-8.40181
-11.09
-14.8269
-19.4254
-24.688
-30.3956
-36.3013
-42.1272
-47.5605
-52.2466
-55.7741
-57.6436
-57.2117
-53.5968
-45.2145
-29.6889
-3.89999
36.5202
97.7216
188.772
324.183
525.174
767.817
-223.984
-84.6174
-36.0971
-16.3745
-6.87197
-1.96649
0.283905
0.675172
-0.398933
-2.70283
-6.06515
-10.3347
-15.3562
-20.9557
-26.9318
-33.0514
-39.0459
-44.6069
-49.3777
-52.9337
-54.7447
-54.1045
-49.9962
-40.756
-24.0025
3.55736
46.6145
112.194
212.202
371.794
658.601
1249.1
VECTORS velocity double
7.82722e-05 -7.82722e-05 0
0.000153163 3.38097e-06 0
8.19995e-06 0.000141582 0
-0.000399784 0.000266401 0
-0.0010275 0.000361313 0
-0.00181869 0.000429876 0
-0.00272827 0.000479708 0
-0.00372408 0.000516103 0
-0.00478066 0.000540475 0
-0.00587208 0.000550941 0
-0.00696659 0.000543577 0
-0.00802387 0.000513697 0
-0.00899452 0.000456952 0
-0.00982173 0.000370257 0
-0.0104446 0.0002526 0
-0.0108029 0.000105756 0
-0.0108434 -6.52455e-05 0
-0.0105261 -0.000252108 0
-0.00983264 -0.000441343 0
-0.00877544 -0.000615863 0
-0.00740284 -0.000756737 0
-0.00580041 -0.000845694 0
-0.00408645 -0.00086826 0
-0.00240119 -0.000817002 0
-0.000890057 -0.000694134 0
0.000316732 -0.000512656 0
0.00112505 -0.00029566 0
0.00149316 -7.24487e-05 0
0.00144246 0.000123148 0
0.00106584 0.000253471 0
0.000539365 0.000273 0
0.000133183 0.000133182 0
-6.87516e-06 -0.000149669 0
-0.000268025 0.000261037 0
-0.00107956 0.000840428 0
-0.00246873 0.0013647 0
-0.00435187 0.00177387 0
-0.00661916 0.00207579 0
-0.00917006 0.00229429 0
-0.0119189 0.00244621 0
-0.014787 0.00253499 0
-0.0176915 0.00255235 0
-0.0205378 0.00248298 0
-0.0232158 0.00230955 0
-0.0256011 0.00201707 0
-0.0275603 0.00159658 0
-0.0289593 0.00104811 0
-0.0296738 0.000383106 0
-0.0296019 -0.000373993 0
-0.0286779 -0.00118474 0
-0.0268862 -0.00199389 0
-0.0242729 -0.00273376 0
-0.0209538 -0.00333055 0
-0.0171148 -0.0037133 0
-0.0130043 -0.00382511 0
-0.00891472 -0.00363502 0
-0.00515361 -0.00314836 0
-0.00200621 -0.00241261 0
0.00030635 -0.00151658 0
0.00166804 -0.000581329 0
0.0020982 0.000252564 0
0.00176732 0.000831555 0
0.00100083 0.000987881 0
0.000279474 0.000545838 0
-0.000183693 4.08987e-05 0
-0.00100577 0.0011537 0
-0.00272211 0.00247564 0
-0.00525181 0.00364836 0
-0.00845003 0.00457159 0
-0.0121635 0.00525881 0
-0.0162523 0.00575094 0
-0.0205892 0.0060754 0
-0.0250497 0.00623436 0
-0.0295007 0.00620846 0
-0.0337938 0.00596629 0
-0.0377644 0.00547479 0
-0.0412354 0.00470819 0
-0.0440259 0.0036552 0
-0.0459621 0.00232469 0
-0.0468908 0.000749706 0
-0.0466935 -0.00100985 0
-0.0453012 -0.00286523 0
-0.0427074 -0.00469891 0
-0.0389793 -0.00637009 0
-0.0342663 -0.00772633 0
-0.0288025 -0.0086203 0
-0.0229003 -0.00893078 0
-0.0169332 -0.00858608 0
-0.0113051 -0.00758647 0
-0.00640711 -0.00601992 0
-0.00256332 -0.00406562 0
2.47661e-05 -0.00198206 0
0.00132812 -8.02227e-05 0
0.00152083 0.00130252 0
0.00098233 0.00182191 0
0.000295089 0.0011204 0
-0.000394801 0.000619393 0
-0.0018798 0.00288228 0
-0.00463243 0.00521602 0
-0.00840545 0.00721069 0
-0.0129653 0.00876728 0
-0.0181098 0.00992115 0
-0.0236654 0.010733 0
-0.0294727 0.0112376 0
-0.0353715 0.0114314 0
-0.0411898 0.0112807 0
-0.0467397 0.0107371 0
-0.0518188 0.00975367 0
-0.0562171 0.0082986 0
-0.0597269 0.00636518 0
-0.0621555 0.0039795 0
-0.0633374 0.00120543 0
-0.0631478 -0.00185242 0
-0.0615144 -0.00504842 0
-0.0584267 -0.00819722 0
-0.0539489 -0.0110777 0
-0.0482316 -0.013449 0
-0.041519 -0.0150741 0
-0.0341477 -0.0157504 0
-0.0265357 -0.0153456 0
-0.0191552 -0.0138355 0
-0.0124887 -0.0113355 0
-0.00696637 -0.00811609 0
-0.00289502 -0.00459103 0
-0.000390023 -0.00127961 0
0.000672095 0.00124707 0
0.000671964 0.00241598 0
0.000235022 0.00165051 0
-0.000618507 0.0016327 0
-0.00280725 0.00554271 0
-0.0066513 0.00915227 0
-0.0117081 0.0121043 0
-0.0176383 0.0143637 0
-0.024186 0.016017 0
-0.0311465 0.0171533 0
-0.0383361 0.0178142 0
-0.0455699 0.0179874 0
-0.0526502 0.0176234 0
-0.059364 0.0166581 0
-0.0654867 0.0150345 0
-0.0707903 0.0127196 0
-0.0750533 0.0097171 0
-0.0780724 0.00607527 0
-0.0796731 0.00189225 0
-0.0797204 -0.00268154 0
-0.0781254 -0.00744773 0
-0.0748539 -0.0121571 0
-0.0699415 -0.016508 0
-0.0635116 -0.0201657 0
-0.0557897 -0.0227919 0
-0.0471105 -0.024083 0
-0.0379159 -0.0238197 0
-0.028735 -0.0219227 0
-0.0201435 -0.0185063 0
-0.0126961 -0.013915 0
-0.00683757 -0.00872205 0
-0.00280971 -0.00368145 0
-0.000579868 0.000356952 0
0.000192044 0.00253433 0
0.000137811 0.00202334 0
-0.000844193 0.0030954 0
-0.00374067 0.00916524 0
-0.00867504 0.0143082 0
-0.0150009 0.0183311 0
-0.0222687 0.0213348 0
-0.0301685 0.0234933 0
-0.038469 0.024938 0
-0.0469697 0.0257198 0
-0.0554716 0.0258174 0
-0.0637635 0.0251657 0
-0.0716204 0.0236865 0
-0.0788075 0.0213158 0
-0.0850879 0.0180222 0
-0.0902319 0.0138215 0
-0.0940255 0.00878371 0
-0.0962796 0.00303866 0
-0.0968374 -0.00322302 0
-0.0955786 -0.00976003 0
-0.0924262 -0.0162687 0
-0.0873656 -0.0223694 0
-0.0804701 -0.0276296 0
-0.0719233 -0.0315968 0
-0.0620363 -0.0338443 0
-0.0512567 -0.0340328 0
-0.0401611 -0.0319861 0
-0.0294223 -0.0277732 0
-0.0197409 -0.021777 0
-0.0117405 -0.014719 0
-0.00584158 -0.00761126 0
-0.00215027 -0.00163438 0
-0.000402467 0.00200595 0
2.11674e-05 0.00218232 0
-0.00106335 0.00500294 0
-0.00464234 0.0137332 0
-0.0106204 0.0206527 0
-0.0181533 0.0258454 0
-0.0266864 0.0296214 0
-0.0358613 0.0322813 0
-0.0454258 0.034015 0
-0.0551704 0.0348881 0
-0.0648914 0.0348719 0
-0.0743747 0.0338865 0
-0.0833931 0.031841 0
-0.0917094 0.0286646 0
-0.0990825 0.024327 0
-0.105274 0.0188525 0
-0.110056 0.012328 0
-0.113215 0.00490691 0
-0.114559 -0.00318935 0
-0.113926 -0.0116857 0
-0.111183 -0.0202378 0
-0.106252 -0.0283926 0
-0.0991363 -0.0356172 0
-0.0899586 -0.0413337 0
-0.0789832 -0.0449698 0
-0.0666408 -0.0460294 0
-0.0535372 -0.0441886 0
-0.0404364 -0.0394102 0
-0.0282001 -0.0320577 0
-0.017672 -0.0229668 0
-0.00951446 -0.01342 0
-0.00403937 -0.00499208 0
-0.00110395 0.000680426 0
-0.000111618 0.00209187 0
-0.0012669 0.0073332 0
-0.00547528 0.0191903 0
-0.0124098 0.0281081 0
-0.0210453 0.0345583 0
-0.0307346 0.039131 0
-0.0410787 0.0422907 0
-0.0518116 0.044303 0
-0.0627219 0.045255 0
-0.073609 0.0451131 0
-0.0842639 0.0437836 0
-0.0944641 0.0411625 0
-0.103974 0.0371698 0
-0.112551 0.0317716 0
-0.119945 0.024994 0
-0.125908 0.0169309 0
-0.130195 0.00774921 0
-0.132572 -0.00230976 0
-0.132829 -0.0129419 0
-0.130773 -0.0237792 0
-0.126253 -0.0343031 0
-0.119193 -0.0438817 0
-0.109635 -0.0518057 0
-0.0977697 -0.0573382 0
-0.0839813 -0.0597917 0
-0.0688731 -0.0586382 0
-0.0532763 -0.0536581 0
-0.0382117 -0.0451107 0
-0.0247753 -0.0338783 0
-0.0139403 -0.021501 0
-0.00631201 -0.0100144 0
-0.00193694 -0.00160775 0
-0.000264739 0.00171551 0
-0.0014449 0.010045 0
-0.00620125 0.0254432 0
-0.0139665 0.0365549 0
-0.023561 0.0443416 0
-0.0342609 0.0497369 0
-0.0456358 0.0534037 0
-0.0574122 0.0556993 0
-0.0693827 0.0567396 0
-0.0813558 0.0564887 0
-0.0931328 0.0548399 0
-0.1045 0.0516736 0
-0.115227 0.0468962 0
-0.125068 0.0404628 0
-0.133763 0.0323914 0
-0.141039 0.0227723 0
-0.146619 0.0117745 0
-0.150226 -0.000350555 0
-0.151598 -0.0132723 0
-0.150488 -0.0266138 0
-0.146672 -0.039805 0
-0.139988 -0.0521237 0
-0.130379 -0.0627311 0
-0.11794 -0.0707174 0
-0.102966 -0.0751747 0
-0.0860124 -0.0753168 0
-0.0679336 -0.070655 0
-0.0498805 -0.0612315 0
-0.0332112 -0.0478632 0
-0.0192734 -0.0322889 0
-0.00907265 -0.0170555 0
-0.0029493 -0.00506506 0
-0.000449732 0.00100104 0
-0.00158697 0.0130769 0
-0.00678184 0.0323626 0
-0.0152155 0.0458344 0
-0.025588 0.0550292 0
-0.0371161 0.0612773 0
-0.0493467 0.0654687 0
-0.0620034 0.0680674 0
-0.0748864 0.0692251 0
-0.0878169 0.0689068 0
-0.10061 0.0669919 0
-0.113064 0.0633427 0
-0.124955 0.0578457 0
-0.136038 0.0504366 0
-0.146041 0.0411153 0
-0.154674 0.0299575 0
-0.161629 0.0171241 0
-0.166591 0.00286857 0
-0.169252 -0.0124579 0
-0.169318 -0.0284727 0
-0.166502 -0.0445782 0
-0.160556 -0.0599804 0
-0.151314 -0.0737249 0
-0.138744 -0.0847331 0
-0.123014 -0.091863 0
-0.104571 -0.0940241 0
-0.0842274 -0.0903705 0
-0.0632043 -0.0805923 0
-0.0430975 -0.0652785 0
-0.0256706 -0.0462383 0
-0.0124457 -0.0265318 0
-0.00420273 -0.00995507 0
-0.000681276 -0.000129966 0
-0.00168326 0.0163471 0
-0.00718111 0.0397851 0
-0.0160872 0.0557516 0
-0.0270218 0.0664191 0
-0.0391598 0.0735535 0
-0.0520314 0.0782947 0
-0.0653598 0.0812266 0
-0.0789544 0.0825436 0
-0.0926504 0.0822147 0
-0.106279 0.0801054 0
-0.119651 0.0760561 0
-0.132556 0.069928 0
-0.144749 0.0616298 0
-0.155958 0.0511347 0
-0.165882 0.0384946 0
-0.174193 0.0238531 0
-0.180549 0.00745776 0
-0.184604 -0.010331 0
-0.186029 -0.0291094 0
-0.184496 -0.0482904 0
-0.179675 -0.0670353 0
-0.171285 -0.0843015 0
-0.159148 -0.0988634 0
-0.143261 -0.10935 0
-0.1239 -0.11434 0
-0.101748 -0.112551 0
-0.0780087 -0.103174 0
-0.0544486 -0.0863633 0
-0.0332477 -0.0637813 0
-0.0165512 -0.0389102 0
-0.00576372 -0.0166071 0
-0.000975929 -0.00178717 0
-0.00172551 0.0197559 0
-0.00736895 0.0475176 0
-0.0165233 0.0660795 0
-0.0277736 0.0782762 0
-0.0402695 0.0863303 0
-0.0535287 0.0916486 0
-0.0672734 0.0949458 0
-0.0813211 0.0964666 0
-0.0955209 0.0961874 0
-0.10972 0.0939602 0
-0.123748 0.0896018 0
-0.137406 0.0829442 0
-0.150462 0.0738636 0
-0.162652 0.0623004 0
-0.173676 0.0482766 0
-0.183206 0.0319115 0
-0.190888 0.0134378 0
-0.196357 -0.00678675 0
-0.199267 -0.0283193 0
-0.19926 -0.0506206 0
-0.195943 -0.0728432 0
-0.188928 -0.093898 0
-0.177877 -0.112455 0
-0.16258 -0.126944 0
-0.143077 -0.135611 0
-0.119828 -0.136681 0
-0.0939027 -0.128708 0
-0.067126 -0.111166 0
-0.0420396 -0.0852655 0
-0.0214833 -0.0546788 0
-0.0076959 -0.0254134 0
-0.00135074 -0.00411384 0
-0.00170816 0.0231895 0
-0.00732482 0.055344 0
-0.0164829 0.0765655 0
-0.0277794 0.090337 0
-0.0403542 0.0993402 0
-0.0537137 0.105257 0
-0.0675765 0.108945 0
-0.0817654 0.110704 0
-0.0961416 0.110526 0
-0.110569 0.108249 0
-0.124897 0.103668 0
-0.138945 0.0965842 0
-0.152505 0.0868397 0
-0.165331 0.07434 0
-0.177143 0.0590737 0
-0.187631 0.0411314 0
-0.196455 0.0207245 0
-0.203259 -0.00180053 0
-0.207689 -0.0259661 0
-0.209377 -0.0512927 0
-0.207896 -0.0769685 0
-0.202769 -0.101915 0
-0.193499 -0.124759 0
-0.179643 -0.143792 0
-0.160948 -0.15696 0
-0.137555 -0.161974 0
-0.110265 -0.156631 0
-0.0808073 -0.139478 0
-0.0519681 -0.11088 0
-0.02729 -0.0742992 0
-0.0100539 -0.0368165 0
-0.00182259 -0.00728717 0
-0.0016294 0.0265271 0
-0.00704126 0.063035 0
-0.0159493 0.0869406 0
-0.0270096 0.102319 0
-0.0393667 0.11229 0
-0.0525156 0.118816 0
-0.0661667 0.1229 0
-0.0801435 0.124914 0
-0.094317 0.124865 0
-0.108568 0.122588 0
-0.122766 0.117855 0
-0.13676 0.11044 0
-0.150368 0.100153 0
-0.163383 0.0868669 0
-0.175562 0.0705381 0
-0.186634 0.0512275 0
-0.196302 0.0291204 0
-0.204239 0.00454453 0
-0.210106 -0.0220141 0
-0.213549 -0.0501135 0
-0.214146 -0.0790312 0
-0.211358 -0.107767 0
-0.204545 -0.13499 0
-0.193025 -0.158937 0
-0.176206 -0.177328 0
-0.153822 -0.187383 0
-0.126263 -0.186071 0
-0.0949815 -0.170777 0
-0.0628233 -0.140578 0
-0.0339579 -0.0981441 0
-0.0128775 -0.0512881 0
-0.00240732 -0.0115171 0
-0.00149196 0.0296484 0
-0.00652666 0.0703602 0
-0.0149351 0.0969319 0
-0.0254772 0.11393 0
-0.0373157 0.124875 0
-0.0499332 0.131998 0
-0.0630266 0.136463 0
-0.0764152 0.138717 0
-0.0899766 0.138797 0
-0.103608 0.136538 0
-0.117203 0.131698 0
-0.130641 0.124028 0
-0.143782 0.113314 0
-0.156465 0.0994017 0
-0.168502 0.0822199 0
-0.179687 0.0618036 0
-0.189786 0.0383108 0
-0.198535 0.0120403 0
-0.205627 -0.016551 0
-0.210755 -0.047006 0
-0.213542 -0.0787544 0
-0.213427 -0.110947 0
-0.209661 -0.142391 0
-0.201335 -0.171384 0
-0.1875 -0.195535 0
-0.167409 -0.211651 0
-0.140908 -0.215863 0
-0.108969 -0.204205 0
-0.0742601 -0.174017 0
-0.0414024 -0.126428 0
-0.0161875 -0.0692996 0
-0.00311943 -0.0170438 0
-0.00130346 0.0324439 0
-0.00580689 0.0771029 0
-0.0134857 0.106276 0
-0.0232433 0.124885 0
-0.0342732 0.136788 0
-0.0460452 0.144474 0
-0.0582377 0.149272 0
-0.0706609 0.15172 0
-0.0831964 0.151892 0
-0.0957571 0.149635 0
-0.108264 0.144702 0
-0.120631 0.13683 0
-0.132767 0.125789 0
-0.144563 0.111405 0
-0.155902 0.0935931 0
-0.166654 0.072368 0
-0.176674 0.0478647 0
-0.185786 0.0203475 0
-0.193773 -0.0097793 0
-0.200394 -0.0420292 0
-0.20533 -0.0760072 0
-0.208056 -0.111084 0
-0.207766 -0.14631 0
-0.203368 -0.180188 0
-0.193566 -0.210368 0
-0.17709 -0.233385 0
-0.153128 -0.244592 0
-0.121967 -0.238574 0
-0.0858131 -0.210512 0
-0.0494659 -0.159138 0
-0.0199836 -0.0912865 0
-0.00397262 -0.0241359 0
-0.00107641 0.0348237 0
-0.00492567 0.0830757 0
-0.011681 0.114738 0
-0.0204195 0.13492 0
-0.0303777 0.147741 0
-0.0410133 0.155928 0
-0.0519828 0.16098 0
-0.0630842 0.163536 0
-0.0742016 0.163728 0
-0.0852643 0.161423 0
-0.0962217 0.156378 0
-0.107029 0.14833 0
-0.117643 0.137038 0
-0.128019 0.122327 0
-0.138111 0.104103 0
-0.147877 0.0823765 0
-0.157271 0.0572699 0
-0.166236 0.0290195 0
-0.174676 -0.00202373 0
-0.182443 -0.0353969 0
-0.189304 -0.0708426 0
-0.194821 -0.108005 0
-0.198209 -0.14629 0
-0.198258 -0.184556 0
-0.193371 -0.220689 0
-0.181756 -0.251154 0
-0.161862 -0.27068 0
-0.133107 -0.272402 0
-0.0969242 -0.24902 0
-0.0579244 -0.195977 0
-0.0242469 -0.117608 0
-0.004982 -0.0330905 0
-0.000827711 0.0367279 0
-0.00394369 0.0881368 0
-0.0096345 0.122123 0
-0.0171677 0.143806 0
-0.0258328 0.157478 0
-0.035079 0.166073 0
-0.0445404 0.171266 0
-0.0540023 0.173814 0
-0.0633519 0.173918 0
-0.0725372 0.171481 0
-0.0815399 0.16628 0
-0.0903589 0.158055 0
-0.0990034 0.146572 0
-0.107492 0.131658 0
-0.115855 0.113227 0
-0.124135 0.0912988 0
-0.132392 0.065999 0
-0.140689 0.0375521 0
-0.149069 0.0062642 0
-0.157504 -0.0274826 0
-0.165885 -0.0635166 0
-0.173913 -0.101785 0
-0.180897 -0.142138 0
-0.185608 -0.183948 0
-0.186237 -0.225556 0
-0.180525 -0.263614 0
-0.166154 -0.292484 0
-0.141522 -0.303987 0
-0.106981 -0.288159 0
-0.0665028 -0.236316 0
-0.0289475 -0.148501 0
-0.00616846 -0.044241 0
-0.00057803 0.0381336 0
-0.00293715 0.0922062 0
-0.00749162 0.128299 0
-0.0136972 0.151369 0
-0.020903 0.165786 0
-0.0285553 0.174664 0
-0.0362709 0.179852 0
-0.0438254 0.182244 0
-0.0511133 0.182125 0
-0.0581062 0.179452 0
-0.0648226 0.174028 0
-0.0713091 0.165612 0
-0.0776313 0.153981 0
-0.0838716 0.138977 0
-0.0901309 0.12053 0
-0.096533 0.0986789 0
-0.103229 0.0735715 0
-0.110393 0.0454407 0
-0.118201 0.0145643 0
-0.126769 -0.0187793 0
-0.136135 -0.0544739 0
-0.146175 -0.0927597 0
-0.156369 -0.133985 0
-0.165587 -0.178172 0
-0.171949 -0.224341 0
-0.172843 -0.269647 0
-0.165234 -0.30843 0
-0.146409 -0.331497 0
-0.115354 -0.326244 0
-0.0748917 -0.279173 0
-0.0340553 -0.184036 0
-0.00756529 -0.0579747 0
-0.000351297 0.0390629 0
-0.00199661 0.0952813 0
-0.00542834 0.13321 0
-0.0102624 0.157498 0
-0.015907 0.172508 0
-0.0218154 0.181503 0
-0.0275975 0.186511 0
-0.0330295 0.188572 0
-0.0380212 0.188077 0
-0.0425755 0.185047 0
-0.0467544 0.179328 0
-0.0506572 0.170701 0
-0.054409 0.158966 0
-0.0581565 0.14398 0
-0.0620681 0.125697 0
-0.0663371 0.104182 0
-0.0711872 0.0796136 0
-0.0768757 0.052251 0
-0.0836857 0.0223724 0
-0.0918852 -0.00982001 0
-0.101661 -0.0442915 0
-0.113056 -0.0815075 0
-0.125789 -0.12231 0
-0.138963 -0.167455 0
-0.150805 -0.216855 0
-0.158546 -0.2685 0
-0.158573 -0.317159 0
-0.14707 -0.353097 0
-0.12142 -0.361348 0
-0.0827582 -0.323193 0
-0.0395498 -0.224061 0
-0.00922506 -0.0747651 0
-0.000174927 0.0395892 0
-0.00122793 0.0974534 0
-0.00365215 0.136894 0
-0.00716149 0.162157 0
-0.0112127 0.177544 0
-0.0152802 0.186443 0
-0.0189867 0.19106 0
-0.0221268 0.192595 0
-0.0246404 0.191559 0
-0.0265725 0.188052 0
-0.0280368 0.181967 0
-0.0291907 0.173119 0
-0.0302215 0.161331 0
-0.0313417 0.146483 0
-0.0327853 0.12855 0
-0.0348082 0.107622 0
-0.0376914 0.0839074 0
-0.0417459 0.0577003 0
-0.0473165 0.0293037 0
-0.0547683 -0.00110011 0
-0.0644092 -0.0335948 0
-0.0764388 -0.0687798 0
-0.0908345 -0.107908 0
-0.107041 -0.152477 0
-0.123606 -0.203426 0
-0.137872 -0.259922 0
-0.145905 -0.317677 0
-0.142916 -0.367072 0
-0.124558 -0.39138 0
-0.0897351 -0.366646 0
-0.0454181 -0.268133 0
-0.0112227 -0.0952128 0
-8.17812e-05 0.0398459 0
-0.000757888 0.0989258 0
-0.00240889 0.139497 0
-0.00474006 0.165395 0
-0.00723385 0.180851 0
-0.00940646 0.189375 0
-0.0109263 0.193353 0
-0.0116354 0.194151 0
-0.0115254 0.192407 0
-0.0106982 0.188309 0
-0.00932936 0.181806 0
-0.00763918 0.172744 0
-0.00587946 0.160977 0
-0.00432923 0.146407 0
-0.00328744 0.129028 0
-0.00306924 0.108949 0
-0.00400362 0.0863982 0
-0.00643256 0.061693 0
-0.010714 0.035163 0
-0.0172266 0.00700497 0
-0.026335 -0.0229505 0
-0.0383431 -0.0553863 0
-0.0534479 -0.0918011 0
-0.0714975 -0.134328 0
-0.0915591 -0.184949 0
-0.111414 -0.244278 0
-0.127191 -0.30951 0
-0.133437 -0.371983 0
-0.1241 -0.414165 0
-0.0953741 -0.407409 0
-0.0516267 -0.315435 0
-0.0136489 -0.120084 0
-0.000115609 0.0400433 0
-0.000748981 0.100038 0
-0.00199974 0.141286 0
-0.00340129 0.167338 0
-0.00442843 0.182429 0
-0.00467348 0.190215 0
-0.00390116 0.193261 0
-0.00204392 0.193095 0
0.00082483 0.190484 0
0.00452637 0.185703 0
0.00881307 0.178756 0
0.0133922 0.169525 0
0.0179407 0.157888 0
0.0221154 0.14377 0
0.025558 0.12718 0
0.0279027 0.108234 0
0.0287854 0.0871647 0
0.027854 0.0642868 0
0.0247767 0.0399279 0
0.01924 0.0142894 0
0.0109132 -0.0127998 0
-0.000544117 -0.0420715 0
-0.0154733 -0.075082 0
-0.0340791 -0.114391 0
-0.0560679 -0.162835 0
-0.079993 -0.222612 0
-0.102539 -0.292854 0
-0.118114 -0.366819 0
-0.119233 -0.427547 0
-0.0990425 -0.442943 0
-0.0580506 -0.364639 0
-0.0165875 -0.150321 0
-0.000343086 0.040502 0
-0.00142975 0.101299 0
-0.00281302 0.142659 0
-0.00362289 0.168177 0
-0.00329592 0.182291 0
-0.00156136 0.188864 0
0.00164847 0.19063 0
0.00624829 0.189269 0
0.0120313 0.185658 0
0.0187164 0.180142 0
0.0259758 0.172771 0
0.0334478 0.163459 0
0.0407475 0.152106 0
0.0474762 0.13865 0
0.0532278 0.123106 0
0.0575996 0.105591 0
0.0602057 0.086319 0
0.0606936 0.065576 0
0.0587581 0.0436516 0
0.0541433 0.0207172 0
0.0466155 -0.00337311 0
0.0359312 -0.0293566 0
0.0218081 -0.0587447 0
0.00382918 -0.0941439 0
-0.0184016 -0.138862 0
-0.0444425 -0.196618 0
-0.0720646 -0.268679 0
-0.0962924 -0.351191 0
-0.108837 -0.429511 0
-0.0997457 -0.470262 0
-0.0643383 -0.413721 0
-0.0200664 -0.186975 0
-0.000877631 0.0417227 0
-0.00314896 0.103436 0
-0.00537111 0.144127 0
-0.00597127 0.168119 0
-0.00435694 0.180408 0
-0.000504866 0.185161 0
0.00536568 0.185253 0
0.0129312 0.182481 0
0.0218119 0.177783 0
0.0316066 0.171538 0
0.0419034 0.163819 0
0.0522796 0.154562 0
0.0623036 0.143679 0
0.0715394 0.131112 0
0.079554 0.116877 0
0.0859291 0.101073 0
0.0902773 0.0838826 0
0.0922607 0.0655411 0
0.0916074 0.0462754 0
0.0881153 0.0262003 0
0.0816297 0.00515717 0
0.0719728 -0.0175456 0
0.0588881 -0.0433478 0
0.0419932 -0.074667 0
0.0207901 -0.114905 0
-0.00527258 -0.168471 0
-0.0356954 -0.238781 0
-0.0670253 -0.325532 0
-0.09127 -0.418381 0
-0.0958561 -0.485897 0
-0.069683 -0.459666 0
-0.0239717 -0.231013 0
-0.0019221 0.0445224 0
-0.00645651 0.107442 0
-0.0103707 0.146257 0
-0.0110703 0.167288 0
-0.00806766 0.176621 0
-0.00178948 0.178817 0
0.00710258 0.176834 0
0.0179584 0.172478 0
0.0301903 0.166673 0
0.0432692 0.159774 0
0.0567084 0.151846 0
0.0700423 0.142825 0
0.0828154 0.132619 0
0.0945805 0.121171 0
0.104904 0.10848 0
0.113379 0.0946205 0
0.119637 0.0797288 0
0.123371 0.0639771 0
0.124347 0.0475166 0
0.122406 0.0303923 0
0.117443 0.0124143 0
0.109337 -0.00703985 0
0.0978466 -0.0292789 0
0.0825667 -0.0565611 0
0.0628943 -0.092136 0
0.037994 -0.140278 0
0.00711246 -0.20567 0
-0.0288969 -0.291303 0
-0.0641288 -0.393133 0
-0.0847367 -0.485951 0
-0.0724561 -0.498065 0
-0.027898 -0.282883 0
-0.00383327 0.0502778 0
-0.0121788 0.114567 0
-0.0186131 0.149481 0
-0.0193688 0.16552 0
-0.0144694 0.170487 0
-0.0051228 0.169326 0
0.0073966 0.164914 0
0.0220422 0.158897 0
0.0380027 0.152062 0
0.0546393 0.14467 0
0.0714183 0.136732 0
0.0878621 0.128161 0
0.103523 0.11885 0
0.117972 0.108725 0
0.130807 0.0977671 0
0.141654 0.086012 0
0.150188 0.0735451 0
0.156144 0.060471 0
0.159325 0.0468657 0
0.159602 0.0327065 0
0.156894 0.0177718 0
0.151105 0.00149777 0
0.141997 -0.0172187 0
0.129116 -0.0404601 0
0.11172 -0.0711683 0
0.0886608 -0.113286 0
0.0584875 -0.171607 0
0.0202085 -0.251078 0
-0.0240288 -0.353889 0
-0.062258 -0.466358 0
-0.0696193 -0.522578 0
-0.0308835 -0.341664 0
-0.00717587 0.0612869 0
-0.0213111 0.126039 0
-0.0304617 0.153594 0
-0.0302331 0.161934 0
-0.0220511 0.160992 0
-0.00835353 0.155777 0
0.00883665 0.148753 0
0.0280745 0.141174 0
0.0483705 0.133528 0
0.0690348 0.125902 0
0.0895388 0.118217 0
0.109437 0.110335 0
0.128326 0.102126 0
0.145831 0.0934941 0
0.161604 0.0843906 0
0.175331 0.0748142 0
0.186741 0.0647985 0
0.195617 0.0543865 0
0.201795 0.0435913 0
0.205159 0.0323392 0
0.205613 0.0203924 0
0.203035 0.0072442 0
0.197206 -0.00802812 0
0.18762 -0.0271827 0
0.173322 -0.0527518 0
0.15282 -0.0881412 0
0.124014 -0.137772 0
0.0845609 -0.207181 0
0.0335447 -0.302532 0
-0.0222529 -0.423688 0
-0.0557629 -0.524376 0
-0.0309083 -0.403456 0
-0.0125558 0.0810186 0
-0.0339795 0.141866 0
-0.0435863 0.156525 0
-0.0388953 0.154084 0
-0.0242603 0.146025 0
-0.0037425 0.136529 0
0.0199329 0.127136 0
0.0450858 0.118401 0
0.0707188 0.110372 0
0.0962058 0.102907 0
0.121103 0.0958108 0
0.145054 0.0888921 0
0.167743 0.0819904 0
0.188881 0.0749868 0
0.208199 0.0678067 0
0.225455 0.0604148 0
0.240441 0.0528021 0
0.252983 0.0449653 0
0.262943 0.036875 0
0.270202 0.0284325 0
0.274636 0.0194105 0
0.276069 0.00937116 0
0.274203 -0.00245981 0
0.268449 -0.0174112 0
0.257688 -0.0374645 0
0.240065 -0.0653042 0
0.212876 -0.104613 0
0.172652 -0.160662 0
0.116067 -0.24145 0
0.0440458 -0.356952 0
-0.0214845 -0.492072 0