# vtk DataFile Version 2.0
Lid-driven cavity
ASCII
DATASET STRUCTURED_POINTS
DIMENSIONS 32 32 1
ORIGIN 0.015625 0.015625 0
SPACING 0.03125 0.03125 1
POINT_DATA 1024
SCALARS pressure double 1
LOOKUP_TABLE default
51.5246
51.3054
50.9109
50.4645
50.0417
49.6813
49.4028
49.2205
49.1504
49.212
49.4277
49.8184
50.3994
51.1759
52.1381
53.2578
54.4865
55.7577
56.9841
58.0666
58.907
59.4225
59.5614
59.3145
58.7213
57.8662
56.8664
55.8556
54.9664
54.3131
53.9766
53.9654
51.7438
51.5148
51.1843
50.8241
50.4815
50.184
49.9486
49.7897
49.7234
49.7688
49.9466
50.2767
50.774
51.4446
52.2813
53.2605
54.3397
55.4613
56.5461
57.5043
58.2464
58.6979
58.8132
58.5869
58.0583
57.3071
56.4407
55.5736
54.8155
54.2555
53.957
53.954
52.1532
51.8254
51.4826
51.1531
50.8533
50.5923
50.3775
50.2189
50.1312
50.1335
50.2478
50.4962
50.8973
51.462
52.1891
53.0615
54.0431
55.0809
56.0988
57.0081
57.7188
58.1545
58.2674
58.0507
57.5429
56.8237
55.9989
55.1805
54.4658
53.9328
53.637
53.6221
52.6144
52.1445
51.7465
51.4092
51.1187
50.8638
50.6395
50.45
50.3079
50.2335
50.2521
50.3911
50.6759
51.1257
51.7482
52.5345
53.4558
54.4599
55.4713
56.3977
57.1422
57.6191
57.7707
57.5818
57.0866
56.3649
55.5259
54.6855
53.9442
53.3755
53.0323
52.9563
52.9959
52.3678
51.8931
51.522
51.211
50.9288
50.6587
50.399
50.1611
49.9677
49.8495
49.8416
49.9793
50.2927
50.8007
51.5054
52.3869
53.3934
54.4499
55.4584
56.3106
56.9045
57.164
57.0567
56.6045
55.8826
55.0043
54.0955
53.2684
52.605
52.1614
51.9785
53.1702
52.3824
51.8222
51.3989
51.0397
50.6948
50.3371
49.9604
49.5765
49.2117
48.904
48.6985
48.6427
48.7802
49.1442
49.7503
50.5913
51.6203
52.7653
53.9231
54.9709
55.7837
56.257
56.3284
55.9946
55.3162
54.4065
53.4047
52.4446
51.6307
51.0337
50.7034
53.0098
52.0696
51.4213
50.931
50.4965
50.051
49.559
49.0114
48.4214
47.8208
47.2561
46.7843
46.4674
46.3654
46.5291
46.9918
47.763
48.8123
50.0767
51.4508
52.7963
53.9595
54.7954
55.1952
55.1117
54.5734
53.6822
52.5903
51.4636
50.4458
49.6411
49.1236
52.3882
51.3084
50.5724
50.0007
49.4627
48.8758
48.1974
47.417
46.5501
45.6347
44.727
43.8975
43.2248
42.789
42.6625
42.9016
43.5379
44.5723
45.9646
47.6134
49.3671
51.0388
52.4315
53.3705
53.7386
53.5058
52.742
51.6041
50.2983
49.0295
47.9619
47.2089
51.1838
49.9816
49.1588
48.4904
47.8181
47.045
46.1224
45.0386
43.8119
42.4864
41.1286
39.8235
38.6692
37.7692
37.2233
37.1172
37.5113
38.4509
39.9434
41.9023
44.1691
46.5235
48.707
50.4583
51.5598
51.8858
51.4393
50.3611
48.8994
47.344
45.9526
44.9077
49.2875
47.9838
47.0749
46.2922
45.4517
44.4435
43.2129
41.7466
40.065
38.2176
36.2811
34.356
32.5618
31.0301
29.8943
29.2774
29.2767
29.9869
31.5011
33.7637
36.6216
39.8277
43.058
45.9478
48.1463
49.3859
49.552
48.7282
47.1912
45.3367
43.5604
42.1543
46.6116
45.2303
44.2351
43.3186
42.2735
40.9778
39.3707
37.4363
35.195
32.7008
30.0394
27.3271
24.7072
22.3433
20.4093
19.0752
18.4886
18.7759
20.1695
22.6678
26.142
30.3323
34.8558
39.2363
42.9618
45.5726
46.7691
46.512
45.0662
42.9421
40.7248
38.8749
43.0983
41.666
40.5845
39.5135
38.2264
36.59
34.5369
32.0467
29.1378
25.8662
22.3251
18.6464
14.9982
11.5802
8.61288
6.32169
4.91565
4.562
5.62018
8.20956
12.2461
17.4801
23.489
29.6921
35.4021
39.922
42.6909
43.4521
42.382
40.0845
37.3859
34.9975
38.7284
37.2738
36.1065
34.8618
33.2977
31.2714
28.7077
25.5799
21.9019
17.7287
13.1593
8.33949
3.46314
-1.23208
-5.47446
-8.97581
-11.4574
-12.6837
-12.2322
-9.77379
-5.32543
0.903553
8.48405
16.7594
24.8753
31.8713
36.8513
39.226
38.9604
36.6834
33.4959
30.4658
33.5262
32.0792
30.829
29.3962
27.5277
25.0725
21.9472
18.1166
13.5875
8.4112
2.68952
-3.4192
-9.69667
-15.8664
-21.6032
-26.5512
-30.3536
-32.6928
-33.1348
-31.0898
-26.4785
-19.4349
-10.3491
0.0965721
10.9215
20.9082
28.7737
33.4747
34.5984
32.6635
29.0339
25.2563
27.5609
26.1517
24.8263
23.1997
21.0131
18.1085
14.394
9.82425
4.39653
-1.84428
-8.79627
-16.2913
-24.0885
-31.8743
-39.2702
-45.8517
-51.1795
-54.8408
-56.4315
-55.113
-50.6677
-43.1232
-32.7793
-20.2752
-6.64316
6.69484
18.0612
25.8561
29.0944
27.9724
24.028
19.402
20.9431
19.6013
18.2149
16.4027
13.9045
10.5572
6.25982
0.955775
-5.36942
-12.6796
-20.8756
-29.7821
-39.1389
-48.5985
-57.7327
-66.0524
-73.0393
-78.1896
-81.0684
-80.7782
-76.8684
-69.2417
-58.0634
-43.8513
-27.5866
-10.7919
4.51602
16.1291
22.2975
22.6117
18.5849
13.0238
13.8169
12.5697
11.1449
9.17382
6.39803
2.64994
-2.18064
-8.16303
-15.325
-23.6414
-33.0176
-43.2743
-54.1353
-65.2234
-76.067
-86.1194
-94.7925
-101.503
-105.732
-106.679
-103.648
-96.4029
-84.9435
-69.5945
-51.1673
-31.1379
-11.7332
4.26078
14.1804
16.6839
12.9324
6.37353
6.34672
5.21696
3.78671
1.70593
-1.28011
-5.34446
-10.6084
-17.1556
-25.0289
-34.2155
-44.6278
-56.0843
-68.296
-80.8608
-93.2703
-104.93
-115.194
-123.413
-128.989
-131.24
-129.337
-122.902
-111.76
-95.9916
-76.1279
-53.4254
-30.1254
-9.46035
4.93382
10.4604
7.47593
-0.10808
-1.29846
-2.29475
-3.68688
-5.80145
-8.89143
-13.1397
-18.683
-25.6225
-34.0184
-43.8719
-55.1033
-67.5305
-80.8543
-94.6521
-108.385
-121.421
-133.071
-142.636
-149.462
-152.949
-152.274
-146.965
-136.676
-121.231
-100.802
-76.2589
-49.6187
-24.329
-4.92921
4.47146
2.87934
-5.70705
-8.96326
-9.81988
-11.1188
-13.1608
-16.2045
-20.453
-26.067
-33.1714
-41.8468
-52.1098
-63.8889
-77.002
-91.1412
-105.867
-120.615
-134.725
-147.477
-158.144
-166.044
-170.583
-171.085
-167.041
-157.975
-143.479
-123.333
-97.9006
-68.7297
-39.1762
-14.475
-0.381378
0.179322
-9.31002
-16.5243
-17.2484
-18.3863
-20.2141
-23.0119
-27.0227
-32.447
-39.4429
-48.1157
-58.4981
-70.5256
-84.0151
-98.6502
-113.976
-129.41
-144.268
-157.809
-169.29
-178.023
-183.408
-184.91
-182.066
-174.359
-161.185
-141.969
-116.503
-85.668
-52.3933
-22.2773
-2.69549
0.94574
-9.21472
-23.9094
-24.5253
-25.4178
-26.8459
-29.1416
-32.6214
-37.5497
-44.1308
-52.5004
-62.7058
-74.6853
-88.2508
-103.077
-118.696
-134.508
-149.813
-163.855
-175.882
-185.202
-191.227
-193.49
-191.624
-185.149
-173.344
-155.343
-130.381
-98.5498
-62.0362
-26.3943
-0.432188
7.49581
-2.85541
-31.1192
-31.6713
-32.2075
-32.9916
-34.462
-37.0608
-41.1496
-46.9948
-54.7669
-64.5221
-76.2002
-89.6049
-104.392
-120.073
-136.032
-151.551
-165.864
-178.214
-187.909
-194.374
-197.154
-195.945
-190.345
-179.617
-162.671
-138.256
-105.631
-65.9914
-24.4076
9.1999
23.1562
13.5696
-38.2584
-38.8116
-38.8301
-38.6395
-38.8777
-40.1901
-43.076
-47.8892
-54.8248
-63.9401
-75.1567
-88.2534
-102.861
-118.465
-134.429
-150.019
-164.46
-176.987
-186.91
-193.652
-196.763
-195.883
-190.587
-180.267
-163.772
-139.354
-105.481
-62.1559
-13.5242
29.8094
52.5446
45.5656
-45.5962
-46.2236
-45.4596
-43.8267
-42.318
-41.8889
-43.2194
-46.7339
-52.6466
-60.9955
-71.665
-84.3924
-98.7697
-114.252
-130.175
-145.79
-160.309
-172.962
-183.047
-189.975
-193.276
-192.539
-187.165
-176.387
-159.001
-133.342
-97.0219
-48.557
9.28565
65.7964
101.816
100.885
-53.6981
-54.4315
-52.4032
-48.6343
-44.718
-42.0354
-41.475
-43.4908
-48.2826
-55.835
-65.968
-78.3571
-92.5429
-107.94
-123.857
-139.526
-154.147
-166.937
-177.175
-184.238
-187.606
-186.824
-181.067
-169.258
-149.897
-120.813
-79.4275
-23.3479
47.1649
122.197
178.789
190.12
-63.7428
-64.4045
-60.164
-53.1836
-46.0093
-40.5276
-37.7986
-38.2191
-41.9055
-48.7384
-58.4396
-70.6027
-84.7048
-100.115
-116.112
-131.909
-146.692
-159.66
-170.062
-177.224
-180.543
-179.454
-173.039
-159.619
-137.205
-102.935
-53.2235
15.2962
103.302
204.347
292.816
327.339
-78.2964
-77.956
-69.527
-57.602
-46.0822
-37.2755
-32.2102
-31.0777
-33.8009
-40.0934
-49.5446
-61.6493
-75.8144
-91.3619
-107.54
-123.545
-138.546
-151.723
-162.288
-169.497
-172.635
-170.96
-163.539
-147.884
-121.298
-79.9902
-19.0279
66.794
180.503
317.228
454.109
530.772
-103.258
-98.3977
-81.4775
-61.7783
-44.5918
-32.0632
-24.6892
-22.2247
-24.264
-30.287
-39.7245
-51.9654
-66.3466
-82.1467
-98.5886
-114.852
-130.096
-143.477
-154.167
-161.342
-164.156
-161.655
-152.658
-134.145
-102.291
-52.1924
22.7622
130.296
277.311
464.542
671.799
823.475
-152.709
-130.6
-95.8667
-64.1845
-40.1919
-23.9644
-14.6848
-11.4183
-13.267
-19.4274
-29.1661
-41.7753
-56.5358
-72.6955
-89.4623
-106.01
-121.489
-135.04
-145.792
-152.841
-155.19
-151.64
-140.617
-118.593
-80.6694
-20.7296
69.7153
201.625
387.979
641.002
955.511
1232.81
-259.051
-173.949
-104.849
-57.6988
-27.4911
-9.32742
0.0527586
2.70947
0.016992
-7.0188
-17.577
-30.9136
-46.2982
-62.9804
-80.177
-97.0719
-112.822
-126.559
-137.378
-144.3
-146.184
-141.577
-128.462
-102.763
-59.0913
9.72809
113.876
267.79
492.844
823.482
1310.46
1896.26
-523.232
-187.385
-68.7366
-19.005
5.56888
18.0224
22.8735
22.0867
16.7673
7.69931
-4.45383
-19.0577
-35.4608
-52.9725
-70.8556
-88.3291
-104.573
-118.729
-129.881
-137.006
-138.878
-133.87
-119.583
-91.9621
-45.5101
27.4067
137.757
302.098
548.695
937.764
1632.14
3057.78
VECTORS velocity double
8.33394e-05 -8.33394e-05 0
0.000170283 -3.60403e-06 0
3.65148e-05 0.000137372 0
-0.000367421 0.000266564 0
-0.000999966 0.000365981 0
-0.00180467 0.000438723 0
-0.00273572 0.000492326 0
-0.00376008 0.000532035 0
-0.00485127 0.000559152 0
-0.00598203 0.000571612 0
-0.00711893 0.000565283 0
-0.00821949 0.000535283 0
-0.00923188 0.000477108 0
-0.0100966 0.000387582 0
-0.0107498 0.000265691 0
-0.0111288 0.000113306 0
-0.0111778 -6.43393e-05 0
-0.0108548 -0.000258657 0
-0.0101406 -0.000455548 0
-0.00904792 -0.000637145 0
-0.0076271 -0.000783674 0
-0.00596734 -0.000876084 0
-0.00419195 -0.000899306 0
-0.00244701 -0.00084564 0
-0.00088389 -0.000717477 0
0.000362073 -0.000528487 0
0.00119345 -0.000302894 0
0.00156762 -7.1269e-05 0
0.00150771 0.000131175 0
0.00111106 0.000265476 0
0.00056104 0.000284542 0
0.000138249 0.000138248 0
6.25553e-08 -0.000166741 0
-0.000248244 0.000241161 0
-0.00105567 0.000833802 0
-0.00245853 0.00137693 0
-0.00437585 0.00180548 0
-0.00669738 0.00212546 0
-0.0093208 0.00236006 0
-0.0121578 0.00252567 0
-0.0151261 0.00262505 0
-0.0181388 0.00264914 0
-0.021096 0.00258182 0
-0.0238817 0.00240509 0
-0.0263656 0.00210358 0
-0.028408 0.0016682 0
-0.029869 0.00109928 0
-0.0306192 0.000408924 0
-0.0305528 -0.000377368 0
-0.0296017 -0.00121969 0
-0.02775 -0.0020604 0
-0.0250461 -0.00282892 0
-0.0216104 -0.00344841 0
-0.0176364 -0.00384515 0
-0.0133819 -0.00396007 0
-0.00915061 -0.00376114 0
-0.00526158 -0.00325413 0
-0.00201061 -0.00248877 0
0.000373241 -0.00155785 0
0.00177043 -0.000587668 0
0.00220231 0.0002756 0
0.00184714 0.000872872 0
0.00104363 0.00103068 0
0.000291016 0.000567513 0
-0.000181203 1.4399e-05 0
-0.00100617 0.0011333 0
-0.00274613 0.00248905 0
-0.00532647 0.00370488 0
-0.00860328 0.00467165 0
-0.0124216 0.00539915 0
-0.0166383 0.00592653 0
-0.0211218 0.00627968 0
-0.0257415 0.00645907 0
-0.0303573 0.00644354 0
-0.0348129 0.00620019 0
-0.0389353 0.00569491 0
-0.0425392 0.00490159 0
-0.045436 0.0038094 0
-0.0474454 0.00242839 0
-0.048409 0.000793608 0
-0.0482051 -0.00103241 0
-0.0467633 -0.00295751 0
-0.0440782 -0.00485933 0
-0.0402206 -0.00659158 0
-0.0353458 -0.00799619 0
-0.0296966 -0.00892063 0
-0.0235961 -0.0092395 0
-0.0174304 -0.00887877 0
-0.0116169 -0.00783899 0
-0.00656001 -0.0062118 0
-0.00259498 -0.00418369 0
6.97654e-05 -0.00202376 0
0.0014048 -5.52292e-05 0
0.00159162 0.00137206 0
0.00102437 0.00190224 0
0.000307199 0.00116573 0
-0.000400743 0.000596345 0
-0.00191514 0.00289072 0
-0.00473273 0.00528916 0
-0.00860553 0.00735791 0
-0.013297 0.00898688 0
-0.0186012 0.0102065 0
-0.0243395 0.0110743 0
-0.0303462 0.0116221 0
-0.0364532 0.0118433 0
-0.0424795 0.0117014 0
-0.0482275 0.011146 0
-0.0534853 0.0101293 0
-0.058034 0.00861987 0
-0.0616587 0.00661265 0
-0.0641607 0.00413649 0
-0.0653706 0.00125905 0
-0.065162 -0.00191044 0
-0.0634624 -0.00522094 0
-0.0602632 -0.00848013 0
-0.0556325 -0.0114591 0
-0.0497269 -0.0139091 0
-0.0427982 -0.0155856 0
-0.0351932 -0.0162799 0
-0.027342 -0.0158554 0
-0.0197304 -0.0142874 0
-0.0128554 -0.0116954 0
-0.00716104 -0.00835954 0
-0.00296427 -0.00470943 0
-0.000384834 -0.00128403 0
0.000704818 0.0013244 0
0.000698686 0.00252328 0
0.000243812 0.00171674 0
-0.000635106 0.00163219 0
-0.00288567 0.00561983 0
-0.00684291 0.00933488 0
-0.0120537 0.0123958 0
-0.0181705 0.0147572 0
-0.0249308 0.0165006 0
-0.0321233 0.0177109 0
-0.0395563 0.0184252 0
-0.0470357 0.0186267 0
-0.0543539 0.0182625 0
-0.0612875 0.0172665 0
-0.0676027 0.0155817 0
-0.0730633 0.0131769 0
-0.0774419 0.0100589 0
-0.0805307 0.00628094 0
-0.0821529 0.00194678 0
-0.082173 -0.00278666 0
-0.0805031 -0.00771424 0
-0.077111 -0.0125782 0
-0.0720354 -0.0170673 0
-0.0654047 -0.0208373 0
-0.0574505 -0.0235403 0
-0.048516 -0.0248646 0
-0.0390532 -0.0245846 0
-0.0296045 -0.0226184 0
-0.0207601 -0.0190836 0
-0.0130904 -0.0143354 0
-0.00705395 -0.00896675 0
-0.00290167 -0.00375842 0
-0.000601598 0.000409067 0
0.00019585 0.00264729 0
0.000141448 0.002102 0
-0.000872248 0.00313955 0
-0.00386457 0.00935537 0
-0.0089611 0.0146531 0
-0.0154938 0.0188211 0
-0.0229991 0.021954 0
-0.0311578 0.0242228 0
-0.0397304 0.0257539 0
-0.0485076 0.0265924 0
-0.0572804 0.0267117 0
-0.0658277 0.0260429 0
-0.0739148 0.0245068 0
-0.0812986 0.0220404 0
-0.0877358 0.018616 0
-0.0929921 0.0142546 0
-0.0968511 0.00903301 0
-0.0991225 0.00308838 0
-0.0996499 -0.00338071 0
-0.0983145 -0.0101254 0
-0.0950409 -0.0168328 0
-0.0898169 -0.0231123 0
-0.0827191 -0.0285208 0
-0.0739355 -0.0325946 0
-0.0637832 -0.0348971 0
-0.0527179 -0.0350802 0
-0.0413273 -0.0329623 0
-0.0302981 -0.0286133 0
-0.0203478 -0.0224259 0
-0.0121173 -0.0151432 0
-0.00604146 -0.00781012 0
-0.00223312 -0.00164764 0
-0.000424221 0.00209765 0
1.91865e-05 0.00226263 0
-0.00110236 0.00511416 0
-0.00480903 0.0140798 0
-0.0109937 0.0212099 0
-0.0187793 0.0265826 0
-0.0275923 0.0305107 0
-0.0370622 0.0332947 0
-0.0469276 0.03512 0
-0.0569696 0.0360455 0
-0.0669748 0.0360366 0
-0.0767198 0.0350103 0
-0.0859691 0.0328758 0
-0.0944788 0.0295649 0
-0.102003 0.0250532 0
-0.108302 0.019372 0
-0.113144 0.0126165 0
-0.116316 0.00494898 0
-0.11763 -0.00340031 0
-0.116922 -0.0121485 0
-0.114064 -0.0209417 0
-0.108976 -0.0293155 0
-0.101666 -0.0367253 0
-0.0922582 -0.0425817 0
-0.0810201 -0.0463004 0
-0.0683877 -0.0473745 0
-0.0549747 -0.0454714 0
-0.0415573 -0.0405507 0
-0.0290138 -0.0329823 0
-0.0182082 -0.0236229 0
-0.00982283 -0.0137917 0
-0.00418365 -0.00511356 0
-0.00115102 0.000722042 0
-0.000119001 0.00216282 0
-0.00131521 0.00753172 0
-0.00567763 0.0197313 0
-0.0128543 0.0289196 0
-0.021778 0.0355822 0
-0.0317777 0.0403239 0
-0.0424405 0.0436143 0
-0.0534903 0.0457156 0
-0.0647064 0.046708 0
-0.0758793 0.0465522 0
-0.0867918 0.0451523 0
-0.0972145 0.0424058 0
-0.106908 0.0382378 0
-0.115625 0.0326216 0
-0.123115 0.0255922 0
-0.12913 0.0172533 0
-0.133426 0.00778133 0
-0.135773 -0.00257278 0
-0.135959 -0.0134971 0
-0.133796 -0.0246143 0
-0.129132 -0.0353945 0
-0.121894 -0.0451942 0
-0.112123 -0.0532921 0
-0.100012 -0.0589393 0
-0.0859453 -0.0614349 0
-0.0705304 -0.060239 0
-0.0546072 -0.0551237 0
-0.0392112 -0.0463488 0
-0.0254599 -0.0348133 0
-0.0143519 -0.0220947 0
-0.0065152 -0.0102865 0
-0.002008 -0.00164485 0
-0.000277065 0.00176675 0
-0.00149982 0.0103468 0
-0.00642858 0.0262074 0
-0.0144598 0.0376513 0
-0.0243646 0.045679 0
-0.0353918 0.051254 0
-0.0470955 0.0550508 0
-0.0591918 0.0574252 0
-0.0714642 0.0584869 0
-0.083713 0.058195 0
-0.095733 0.0564419 0
-0.107305 0.0531114 0
-0.118197 0.0481168 0
-0.12816 0.0414223 0
-0.136934 0.0330563 0
-0.144249 0.0231197 0
-0.14983 0.0117919 0
-0.153401 -0.00066546 0
-0.154706 -0.0139138 0
-0.153499 -0.027568 0
-0.149556 -0.041047 0
-0.142718 -0.0536179 0
-0.132926 -0.0644313 0
-0.120273 -0.0725651 0
-0.10505 -0.0770978 0
-0.0878137 -0.0772276 0
-0.0694198 -0.072452 0
-0.0510308 -0.0628056 0
-0.0340251 -0.0491135 0
-0.0197797 -0.0331479 0
-0.00933139 -0.0175183 0
-0.0030432 -0.00520843 0
-0.000466745 0.00102294 0
-0.00164513 0.0134917 0
-0.00702105 0.0333672 0
-0.0157309 0.0472327 0
-0.0264214 0.0566929 0
-0.0382795 0.0631253 0
-0.0508353 0.0674391 0
-0.0638017 0.0700996 0
-0.0769704 0.0712535 0
-0.0901554 0.0708622 0
-0.103166 0.0688057 0
-0.115798 0.0649518 0
-0.127826 0.0591956 0
-0.139003 0.0514836 0
-0.149062 0.0418276 0
-0.157713 0.0303148 0
-0.164653 0.0171173 0
-0.169571 0.00249894 0
-0.172164 -0.0131801 0
-0.172142 -0.0295317 0
-0.16922 -0.0459474 0
-0.163151 -0.0616247 0
-0.153766 -0.0756008 0
-0.141028 -0.086787 0
-0.125099 -0.0940277 0
-0.106419 -0.0962146 0
-0.0857955 -0.0924823 0
-0.0644561 -0.0825038 0
-0.0440126 -0.0668644 0
-0.0262589 -0.0473962 0
-0.012756 -0.0272211 0
-0.0043188 -0.010231 0
-0.00070299 -0.000146793 0
-0.00174088 0.0168777 0
-0.00741787 0.0410341 0
-0.0165963 0.0574541 0
-0.0278419 0.0684075 0
-0.0402984 0.0757252 0
-0.0534786 0.0805751 0
-0.0670944 0.0835458 0
-0.080947 0.0848286 0
-0.0948655 0.0843905 0
-0.108677 0.0820995 0
-0.12219 0.0778036 0
-0.135194 0.0713747 0
-0.147445 0.0627336 0
-0.158676 0.0518668 0
-0.168588 0.0388389 0
-0.176861 0.0238058 0
-0.183159 0.00702581 0
-0.187141 -0.0111308 0
-0.188486 -0.0302586 0
-0.186869 -0.0497598 0
-0.18196 -0.0687904 0
-0.173476 -0.0863036 0
-0.161231 -0.101067 0
-0.14521 -0.111698 0
-0.125678 -0.116756 0
-0.103307 -0.114935 0
-0.0792978 -0.1054 0
-0.0554262 -0.0882836 0
-0.0338996 -0.0652573 0
-0.0169073 -0.0398553 0
-0.00590124 -0.01704 0
-0.00100249 -0.00185228 0
-0.00177875 0.0203974 0
-0.00758896 0.0490016 0
-0.016998 0.068074 0
-0.0285385 0.0805737 0
-0.0413287 0.0888058 0
-0.0548678 0.0942138 0
-0.0688667 0.0975218 0
-0.0831348 0.0989735 0
-0.0975159 0.0985453 0
-0.111854 0.0960941 0
-0.125977 0.0914461 0
-0.139688 0.0844461 0
-0.152758 0.0749844 0
-0.164928 0.0630163 0
-0.175904 0.0485777 0
-0.185365 0.0318011 0
-0.192968 0.0129308 0
-0.198355 -0.00766582 0
-0.201188 -0.0295457 0
-0.201117 -0.0521616 0
-0.197749 -0.0746651 0
-0.190694 -0.0959682 0
-0.179602 -0.114739 0
-0.16425 -0.129399 0
-0.14466 -0.138177 0
-0.121275 -0.139271 0
-0.0951515 -0.131196 0
-0.0681152 -0.113395 0
-0.0427285 -0.0870596 0
-0.0218753 -0.0558985 0
-0.00785313 -0.026025 0
-0.00138222 -0.00423699 0
-0.0017535 0.0239296 0
-0.00751494 0.057041 0
-0.0168976 0.0788264 0
-0.0284512 0.0929154 0
-0.0412848 0.102088 0
-0.0548858 0.108072 0
-0.0689608 0.111738 0
-0.0833248 0.11339 0
-0.0978342 0.113019 0
-0.11235 0.110474 0
-0.126722 0.10556 0
-0.140771 0.0980925 0
-0.154294 0.0879305 0
-0.16705 0.0749962 0
-0.17877 0.0592939 0
-0.189153 0.0409287 0
-0.197871 0.0201239 0
-0.204577 -0.00276531 0
-0.208931 -0.0272591 0
-0.210573 -0.0528775 0
-0.209078 -0.0788119 0
-0.203964 -0.103991 0
-0.194724 -0.127047 0
-0.180899 -0.146268 0
-0.162213 -0.159585 0
-0.138782 -0.164679 0
-0.111387 -0.159306 0
-0.081747 -0.141961 0
-0.0526584 -0.112969 0
-0.0277029 -0.0757981 0
-0.0102271 -0.0376233 0
-0.00185873 -0.00747794 0
-0.00166391 0.027347 0
-0.0071905 0.0649116 0
-0.0162826 0.0894305 0
-0.0275567 0.105139 0
-0.0401282 0.115269 0
-0.0534725 0.121836 0
-0.0672877 0.125864 0
-0.0813894 0.127729 0
-0.0956439 0.127444 0
-0.10993 0.124852 0
-0.124118 0.119741 0
-0.138058 0.111901 0
-0.151576 0.101162 0
-0.16447 0.0874152 0
-0.17651 0.0706347 0
-0.187437 0.0508976 0
-0.196966 0.0284022 0
-0.204788 0.00348453 0
-0.210576 -0.0233669 0
-0.213986 -0.051718 0
-0.214599 -0.0808536 0
-0.211874 -0.109789 0
-0.205159 -0.137204 0
-0.193754 -0.161341 0
-0.177042 -0.179909 0
-0.154727 -0.190101 0
-0.127171 -0.188837 0
-0.0958045 -0.173436 0
-0.0634717 -0.142915 0
-0.0343708 -0.0999086 0
-0.0130605 -0.0522989 0
-0.00244734 -0.011784 0
-0.00151353 0.0305245 0
-0.00662686 0.0723741 0
-0.0151706 0.0996038 0
-0.0258755 0.116945 0
-0.0378776 0.128037 0
-0.0506398 0.135175 0
-0.063846 0.139547 0
-0.0773076 0.14161 0
-0.0908977 0.141408 0
-0.104511 0.138788 0
-0.118044 0.133525 0
-0.131377 0.125391 0
-0.144378 0.114192 0
-0.156893 0.0997943 0
-0.168747 0.0821497 0
-0.179748 0.0613104 0
-0.189677 0.0374484 0
-0.198288 0.0108712 0
-0.205293 -0.017961 0
-0.210395 -0.0486121 0
-0.213221 -0.0805203 0
-0.213209 -0.112859 0
-0.209599 -0.144458 0
-0.201463 -0.173627 0
-0.187827 -0.197971 0
-0.16791 -0.214272 0
-0.141523 -0.218609 0
-0.10961 -0.206944 0
-0.0748197 -0.17653 0
-0.0417899 -0.128424 0
-0.0163714 -0.0705122 0
-0.00316197 -0.0173933 0
-0.00131095 0.0333489 0
-0.00585315 0.0792052 0
-0.0136131 0.109076 0
-0.0234771 0.128041 0
-0.0346158 0.140081 0
-0.0464796 0.147756 0
-0.0587334 0.152425 0
-0.0711793 0.154639 0
-0.0836947 0.154484 0
-0.0961908 0.151822 0
-0.108589 0.146423 0
-0.120809 0.138048 0
-0.132763 0.12649 0
-0.144354 0.111601 0
-0.155475 0.093319 0
-0.166013 0.0716799 0
-0.175839 0.0468342 0
-0.184797 0.0190547 0
-0.192684 -0.0112533 0
-0.199274 -0.0436285 0
-0.204259 -0.0776921 0
-0.207113 -0.112846 0
-0.207022 -0.148173 0
-0.202873 -0.182196 0
-0.193345 -0.212567 0
-0.177136 -0.235803 0
-0.153393 -0.247207 0
-0.122369 -0.241284 0
-0.0862383 -0.213111 0
-0.0497998 -0.161311 0
-0.0201575 -0.0926857 0
-0.00401576 -0.0245711 0
-0.00106963 0.0357295 0
-0.00491642 0.0852136 0
-0.0116959 0.117607 0
-0.0204816 0.13816 0
-0.0304921 0.151112 0
-0.0411667 0.159264 0
-0.0521482 0.164152 0
-0.0632265 0.166436 0
-0.0742813 0.166258 0
-0.0852409 0.163504 0
-0.0960559 0.157954 0
-0.106686 0.149366 0
-0.117092 0.137531 0
-0.127238 0.122297 0
-0.137093 0.103599 0
-0.146626 0.0814713 0
-0.155811 0.0560531 0
-0.164606 0.0275896 0
-0.172936 -0.00357196 0
-0.180667 -0.0369888 0
-0.187579 -0.0724343 0
-0.193236 -0.109593 0
-0.196843 -0.147911 0
-0.197176 -0.186273 0
-0.192614 -0.222579 0
-0.181334 -0.253279 0
-0.161748 -0.273059 0
-0.133231 -0.274974 0
-0.0971773 -0.251605 0
-0.0581779 -0.198255 0
-0.0243988 -0.119164 0
-0.00502339 -0.0336102 0
-0.000807377 0.0376065 0
-0.00388049 0.0902565 0
-0.00953806 0.125002 0
-0.0170586 0.147072 0
-0.0257198 0.160871 0
-0.0349541 0.169413 0
-0.0443822 0.174413 0
-0.0537811 0.176652 0
-0.0630342 0.176349 0
-0.0720889 0.173427 0
-0.0809281 0.167685 0
-0.0895543 0.158891 0
-0.0979824 0.14684 0
-0.106239 0.13139 0
-0.114363 0.112484 0
-0.122411 0.0901683 0
-0.130458 0.0645877 0
-0.138584 0.0359766 0
-0.14685 0.00463651 0
-0.155245 -0.0290705 0
-0.163671 -0.0650153 0
-0.171833 -0.103193 0
-0.179034 -0.143502 0
-0.184035 -0.185349 0
-0.185009 -0.227093 0
-0.17967 -0.265383 0
-0.165667 -0.294543 0
-0.141353 -0.30632 0
-0.107037 -0.290628 0
-0.0666534 -0.238615 0
-0.0290656 -0.15017 0
-0.00620553 -0.0448391 0
-0.000545614 0.0389595 0
-0.00282425 0.0942553 0
-0.00729009 0.131126 0
-0.0134243 0.154602 0
-0.0205715 0.16915 0
-0.0281639 0.177962 0
-0.0358054 0.182934 0
-0.0432641 0.184988 0
-0.0504308 0.184432 0
-0.0572769 0.181244 0
-0.0638225 0.175253 0
-0.0701179 0.166245 0
-0.0762337 0.15403 0
-0.0822587 0.138481 0
-0.0883017 0.11956 0
-0.0944963 0.0973357 0
-0.101005 0.0719757 0
-0.108015 0.0437249 0
-0.115719 0.0128577 0
-0.124247 -0.0203684 0
-0.133648 -0.0558905 0
-0.143802 -0.0940025 0
-0.154188 -0.135105 0
-0.163672 -0.179261 0
-0.170363 -0.225517 0
-0.171631 -0.27103 0
-0.164414 -0.310116 0
-0.145961 -0.333515 0
-0.115206 -0.328504 0
-0.0749249 -0.281405 0
-0.0341297 -0.185763 0
-0.00759552 -0.0586402 0
-0.000308792 0.0398139 0
-0.00184033 0.097211 0
-0.00513193 0.135928 0
-0.00983857 0.160641 0
-0.0153723 0.175792 0
-0.0211762 0.184716 0
-0.0268483 0.189493 0
-0.0321577 0.191197 0
-0.0370116 0.190244 0
-0.0414131 0.18668 0
-0.0454264 0.180376 0
-0.0491542 0.171145 0
-0.0527263 0.158818 0
-0.0562948 0.143287 0
-0.0600339 0.124537 0
-0.0641433 0.102663 0
-0.0688538 0.0778671 0
-0.0744311 0.0504214 0
-0.0811673 0.0206012 0
-0.0893373 -0.0114139 0
-0.0991372 -0.0456437 0
-0.110618 -0.0826146 0
-0.123502 -0.123223 0
-0.13689 -0.16827 0
-0.149011 -0.217696 0
-0.157089 -0.269505 0
-0.157496 -0.318452 0
-0.146379 -0.354749 0
-0.121079 -0.363324 0
-0.0826691 -0.325275 0
-0.0395738 -0.225784 0
-0.00924618 -0.0754819 0
-0.000124588 0.0402473 0
-0.0010359 0.0992205 0
-0.00327399 0.139448 0
-0.00660388 0.165158 0
-0.0104952 0.1807 0
-0.0144164 0.189532 0
-0.0179806 0.193913 0
-0.0209762 0.195082 0
-0.0233414 0.193578 0
-0.0251224 0.189528 0
-0.0264352 0.182853 0
-0.0274406 0.173401 0
-0.0283308 0.161025 0
-0.0293225 0.14564 0
-0.0306535 0.127254 0
-0.0325829 0.105985 0
-0.035394 0.0820666 0
-0.0393994 0.0558046 0
-0.0449447 0.0274994 0
-0.0523959 -0.00269101 0
-0.0620645 -0.034898 0
-0.0741552 -0.0697887 0
-0.0886502 -0.108671 0
-0.105003 -0.153081 0
-0.121772 -0.203995 0
-0.136306 -0.260594 0
-0.144667 -0.318595 0
-0.142045 -0.368344 0
-0.124051 -0.393024 0
-0.0895295 -0.368507 0
-0.0453886 -0.269788 0
-0.0112328 -0.0959609 0
-2.58582e-05 0.0403977 0
-0.000538284 0.100494 0
-0.00196391 0.141839 0
-0.00406873 0.168202 0
-0.00635691 0.183836 0
-0.00834429 0.192306 0
-0.00969187 0.196052 0
-0.0102366 0.196484 0
-0.00997013 0.194275 0
-0.00899758 0.18964 0
-0.00749634 0.182553 0
-0.00568997 0.1729 0
-0.00383568 0.160562 0
-0.00221571 0.145475 0
-0.00113066 0.127665 0
-0.000895755 0.107269 0
-0.00183794 0.0845365 0
-0.00429472 0.0597969 0
-0.00861706 0.0333747 0
-0.0151755 0.00544326 0
-0.0243299 -0.0242092 0
-0.0363847 -0.0563321 0
-0.051542 -0.092475 0
-0.0696663 -0.1348 0
-0.089844 -0.185329 0
-0.109875 -0.244695 0
-0.125901 -0.310108 0
-0.13246 -0.372894 0
-0.12347 -0.415458 0
-0.0950676 -0.408997 0
-0.0515446 -0.316962 0
-0.0136468 -0.12084 0
-5.61166e-05 0.0404797 0
-0.000509825 0.101378 0
-0.00150366 0.143374 0
-0.00263804 0.169906 0
-0.00341752 0.185199 0
-0.00344016 0.192952 0
-0.00246569 0.195779 0
-0.000422582 0.195259 0
0.0026124 0.192199 0
0.00645517 0.186901 0
0.0108535 0.179393 0
0.015511 0.169596 0
0.0201026 0.15742 0
0.0242834 0.142817 0
0.0276957 0.125826 0
0.0299767 0.106592 0
0.0307688 0.0853636 0
0.02973 0.0624654 0
0.0265409 0.0382176 0
0.0209023 0.0127975 0
0.0124992 -0.0140059 0
0.00099875 -0.0429801 0
-0.0139497 -0.0757211 0
-0.032572 -0.114807 0
-0.0545951 -0.163121 0
-0.0785999 -0.222867 0
-0.101299 -0.293211 0
-0.11711 -0.367421 0
-0.118531 -0.428499 0
-0.098658 -0.44423 0
-0.0579206 -0.365989 0
-0.0165723 -0.15106 0
-0.000281696 0.0408175 0
-0.0011786 0.102391 0
-0.00228186 0.144458 0
-0.00279052 0.170464 0
-0.00217694 0.184807 0
-0.000181545 0.191372 0
0.0032644 0.192938 0
0.00807234 0.191248 0
0.0140291 0.187218 0
0.0208497 0.181218 0
0.0282009 0.173326 0
0.0357174 0.163489 0
0.0430132 0.151639 0
0.0496903 0.13774 0
0.0553463 0.121835 0
0.0595851 0.104063 0
0.0620317 0.0846536 0
0.062348 0.063898 0
0.0602456 0.0420765 0
0.0554859 0.0193369 0
0.0478485 -0.00450486 0
0.0370956 -0.0302277 0
0.0229428 -0.0593722 0
0.00497064 -0.0945614 0
-0.0172364 -0.139137 0
-0.0432769 -0.196806 0
-0.0709595 -0.26889 0
-0.0953339 -0.351558 0
-0.108114 -0.430162 0
-0.0993105 -0.471243 0
-0.0641679 -0.414856 0
-0.0200382 -0.18767 0
-0.00081588 0.0419151 0
-0.00289353 0.104268 0
-0.00482201 0.145613 0
-0.00509442 0.170091 0
-0.00315733 0.18263 0
0.000993858 0.187402 0
0.00713302 0.187323 0
0.0149294 0.18426 0
0.023995 0.179184 0
0.0339232 0.172503 0
0.044297 0.164316 0
0.0546906 0.154589 0
0.0646727 0.143261 0
0.0738106 0.130302 0
0.0816779 0.115749 0
0.0878666 0.099721 0
0.0920036 0.0824117 0
0.0937687 0.0640586 0
0.0929084 0.0448786 0
0.0892379 0.0249649 0
0.0826152 0.00412729 0
0.0728669 -0.0183586 0
0.0597361 -0.0439577 0
0.0428358 -0.0751034 0
0.0216558 -0.115208 0
-0.00436875 -0.16867 0
-0.0347779 -0.238934 0
-0.0661701 -0.325747 0
-0.0905733 -0.41879 0
-0.0953994 -0.486592 0
-0.0694821 -0.460568 0
-0.0239312 -0.23164 0
-0.00186217 0.0445932 0
-0.00620685 0.108012 0
-0.00982508 0.147415 0
-0.0101799 0.168916 0
-0.00682333 0.178511 0
-0.000209362 0.180756 0
0.00898413 0.178637 0
0.0200955 0.174038 0
0.0325271 0.167909 0
0.045743 0.160634 0
0.0592515 0.152302 0
0.0725853 0.142875 0
0.0852907 0.132288 0
0.0969261 0.120502 0
0.107068 0.10754 0
0.11532 0.0934886 0
0.121334 0.0784933 0
0.12482 0.062726 0
0.125562 0.0463289 0
0.123419 0.0293283 0
0.118295 0.0115102 0
0.110077 -0.00777453 0
0.0985209 -0.0298554 0
0.0832164 -0.0570009 0
0.0635507 -0.0924644 0
0.0386768 -0.140515 0
0.00782942 -0.205833 0
-0.028181 -0.291446 0
-0.0634986 -0.393371 0
-0.084287 -0.486397 0
-0.0722366 -0.49873 0
-0.0278469 -0.283418 0
-0.00377957 0.0502349 0
-0.0119515 0.114887 0
-0.0181027 0.15031 0
-0.018509 0.166782 0
-0.0132334 0.172012 0
-0.00351796 0.170925 0
0.00933523 0.166421 0
0.0242617 0.160216 0
0.0404397 0.153121 0
0.0572226 0.145423 0
0.0740721 0.137155 0
0.0905097 0.128251 0
0.106091 0.118625 0
0.120396 0.108224 0
0.133032 0.0970411 0
0.143642 0.0851254 0
0.151917 0.0725678 0
0.157611 0.0594718 0
0.160546 0.0459056 0
0.160608 0.0318324 0
0.157725 0.0170123 0
0.151806 0.000861541 0
0.14261 -0.0177398 0
0.129678 -0.0408801 0
0.112261 -0.0715024 0
0.0892019 -0.113544 0
0.0590407 -0.171795 0
0.0207733 -0.251206 0
-0.0234951 -0.354025 0
-0.0618431 -0.466606 0
-0.0693951 -0.523019 0
-0.0308246 -0.342089 0
-0.00713705 0.0611515 0
-0.0211346 0.12614 0
-0.0300357 0.154109 0
-0.0294719 0.162825 0
-0.0209074 0.162129 0
-0.00682098 0.157006 0
0.0107278 0.149938 0
0.0302695 0.142231 0
0.0508022 0.134396 0
0.0716275 0.126541 0
0.0922128 0.118603 0
0.112112 0.110466 0
0.130928 0.102013 0
0.148294 0.0931651 0
0.163874 0.083884 0
0.17737 0.0741775 0
0.188527 0.0640831 0
0.197146 0.0536433 0
0.203081 0.042865 0
0.206227 0.0316642 0
0.2065 0.0197904 0
0.203779 0.00672314 0
0.197842 -0.00846823 0
0.188175 -0.0275531 0
0.173824 -0.0530604 0
0.153288 -0.0883909 0
0.124462 -0.137961 0
0.0849972 -0.207308 0
0.0339622 -0.302619 0
-0.0219016 -0.4238 0
-0.055551 -0.524624 0
-0.0308461 -0.40376 0
-0.012545 0.0808336 0
-0.0338946 0.141805 0
-0.0433155 0.156766 0
-0.0383342 0.154623 0
-0.0233411 0.146774 0
-0.00244183 0.137376 0
0.021596 0.127981 0
0.0470631 0.119178 0
0.0729476 0.111031 0
0.0986139 0.103414 0
0.123614 0.0961451 0
0.147591 0.0890474 0
0.170234 0.0819724 0
0.191262 0.074812 0
0.210419 0.0675005 0
0.227475 0.0600088 0
0.242238 0.0523313 0
0.25455 0.0444641 0
0.264286 0.0363742 0
0.271339 0.0279561 0
0.27559 0.0189741 0
0.276868 0.00898162 0
0.274877 -0.00279771 0
0.269024 -0.0177041 0
0.258181 -0.0377149 0
0.240491 -0.065511 0
0.213248 -0.104772 0
0.172983 -0.160768 0
0.116367 -0.241508 0
0.0443096 -0.35699 0
-0.0213046 -0.49217 0
-0.0238085 -0.458414 0