# vtk DataFile Version 2.0
Lid-driven cavity
ASCII
DATASET STRUCTURED_POINTS
DIMENSIONS 32 32 1
ORIGIN 0.015625 0.015625 0
SPACING 0.03125 0.03125 1
POINT_DATA 1024
SCALARS pressure double 1
LOOKUP_TABLE default
23.6509
23.5398
23.3582
23.1687
23.0074
22.8917
22.8293
22.8251
22.8848
23.0155
23.2253
23.5219
23.9102
24.3908
24.9573
25.5956
26.2825
26.9869
27.6689
28.2834
28.7854
29.1365
29.3119
29.3048
29.13
28.8222
28.4315
28.0162
27.6362
27.3449
27.1836
27.165
23.762
23.6465
23.4971
23.3489
23.2245
23.1363
23.0914
23.0955
23.1544
23.2755
23.4663
23.734
24.0834
24.5154
25.0248
25.5993
26.2182
26.8544
27.4715
28.0283
28.484
28.8038
28.9657
28.9649
28.8161
28.5523
28.2195
27.868
27.5479
27.3015
27.161
27.1463
23.9498
23.7866
23.6319
23.4985
23.3938
23.3219
23.2857
23.2892
23.338
23.4395
23.6019
23.8336
24.1408
24.5264
24.9879
25.5155
26.0914
26.6902
27.2771
27.8113
28.2518
28.5632
28.7225
28.7244
28.5834
28.3324
28.0169
27.6861
27.3849
27.1504
27.0105
26.9871
24.1437
23.9142
23.7343
23.5977
23.4979
23.4294
23.39
23.3809
23.407
23.4763
23.5987
23.7846
24.0434
24.3813
24.7995
25.2919
25.8434
26.4292
27.0144
27.5567
28.0121
28.341
28.5163
28.529
28.3919
28.138
27.8143
27.4719
27.1569
26.9048
26.7418
26.6884
24.2815
23.9802
23.7657
23.6145
23.5068
23.4282
23.371
23.3342
23.3219
23.3433
23.4105
23.5372
23.7369
24.0205
24.3941
24.8561
25.3953
25.9864
26.5945
27.175
27.6784
28.0584
28.2795
28.3256
28.2042
27.9467
27.602
27.2261
26.87
26.5732
26.3634
26.2611
24.3059
23.9335
23.681
23.5077
23.3808
23.278
23.1869
23.1043
23.0345
22.9882
22.9803
23.0289
23.1525
23.3679
23.687
24.1143
24.6441
25.252
25.9044
26.5538
27.1444
27.6197
27.9319
28.0518
27.9767
27.732
27.3673
26.9447
26.5254
26.1584
25.8784
25.7101
24.1617
23.7221
23.4311
23.2298
23.0732
22.9314
22.7882
22.639
22.4887
22.3497
22.2408
22.1847
22.2061
22.3288
22.5721
22.9483
23.4591
24.0858
24.7981
25.5473
26.2705
26.8983
27.3654
27.6226
27.6483
27.4551
27.0887
26.6178
26.118
25.656
25.2813
25.0295
23.7948
23.2938
22.9649
22.7304
22.5331
22.3364
22.1208
21.8809
21.622
21.3593
21.1151
20.9177
20.7988
20.7905
20.9217
21.2145
21.6803
22.3134
23.0915
23.9678
24.8732
25.7234
26.43
26.915
27.127
27.054
26.7293
26.2252
25.6362
25.0561
24.5605
24.2027
23.1539
22.5988
22.2326
21.959
21.709
21.4396
21.1287
20.7696
20.3688
19.9435
19.52
19.1325
18.8207
18.6267
18.591
18.7485
19.1236
19.73
20.5637
21.5846
22.7203
23.8714
24.9219
25.7553
26.2763
26.4318
26.2278
25.732
25.0591
24.3412
23.695
23.2038
22.1924
21.5916
21.1887
20.869
20.5527
20.1908
19.7583
19.2475
18.6652
18.0303
17.3729
16.7335
16.1604
15.7074
15.4297
15.3787
15.5952
16.1154
16.9706
18.1349
19.5384
21.0692
22.5813
23.9114
24.9044
25.4451
25.4891
25.0821
24.3547
23.4878
22.6592
22.0002
20.872
20.2353
19.7956
19.4218
19.0239
18.5476
17.9645
17.2654
16.4565
15.5576
14.6022
13.6366
12.7189
11.9163
11.3015
10.9467
10.9157
11.2607
12.0722
13.35
15.0359
17.0119
19.1042
21.0972
22.7619
23.8963
24.3748
24.1915
23.4768
22.4664
21.424
20.5551
19.1664
18.5045
18.0277
17.5909
17.0953
16.4813
15.7171
14.7908
13.7068
12.485
11.1609
9.78646
8.42972
7.17306
6.10939
5.33568
4.94369
5.0085
5.6736
6.99782
8.94468
11.4008
14.1726
16.9942
19.5527
21.5358
22.6993
22.9424
22.3619
21.2424
19.9595
18.8314
17.0643
16.3888
15.8747
15.3662
14.757
13.9828
13.0076
11.816
10.4093
8.80561
7.04156
5.17382
3.28028
1.45926
-0.173895
-1.49378
-2.37591
-2.71202
-2.32712
-1.06383
1.0761
3.99908
7.50678
11.2937
14.9642
18.0784
20.2347
21.1819
20.9274
19.7774
18.2402
16.7974
14.572
13.8949
13.3443
12.7567
12.0206
11.0671
9.85566
8.36613
6.59527
4.55804
2.29035
-0.147542
-2.66859
-5.15844
-7.47817
-9.4713
-10.976
-11.8427
-11.8878
-10.8292
-8.61483
-5.30083
-1.06848
3.75916
8.71824
13.2386
16.7303
18.729
19.0736
18.0334
16.2513
14.4344
11.7141
11.0477
10.4629
9.79251
8.92139
7.77652
6.31265
4.50367
2.34049
-0.166803
-2.98454
-6.05053
-9.26987
-12.5131
-15.618
-18.3961
-20.6454
-22.1692
-22.7829
-22.0971
-19.9729
-16.4114
-11.5514
-5.70115
0.639003
6.78677
11.9506
15.3949
16.6931
15.9793
13.9989
11.7479
8.53263
7.88887
7.27482
6.52354
5.51774
4.18087
2.46237
0.329504
-2.23396
-5.22425
-8.61162
-12.3336
-16.2894
-20.3362
-24.2901
-27.9322
-31.0215
-33.3146
-34.5929
-34.4509
-32.6114
-29.0053
-23.7044
-16.9642
-9.27337
-1.38308
5.72937
11.0192
13.6904
13.6046
11.5243
8.78301
5.08387
4.47366
3.83905
3.01659
1.88831
0.374155
-1.58216
-4.02082
-6.96624
-10.4222
-14.3643
-18.7315
-23.4189
-28.273
-33.0911
-37.6272
-41.6045
-44.7361
-46.7537
-47.2838
-45.9221
-42.5089
-37.0295
-29.6474
-20.7813
-11.1833
-1.96401
5.52072
10.0155
10.9408
8.92496
5.64594
1.43328
0.865595
0.223445
-0.650287
-1.87377
-3.53119
-5.68552
-8.38534
-11.6642
-15.5344
-19.9779
-24.9365
-30.3033
-35.9163
-41.5578
-46.9592
-51.8138
-55.7968
-58.5923
-59.8602
-59.132
-56.1485
-50.7934
-43.108
-33.3816
-22.2815
-10.9622
-1.0429
5.70896
8.09412
6.38336
2.53461
-2.35129
-2.8706
-3.50228
-4.39508
-5.66836
-7.41252
-9.69927
-12.5871
-16.1198
-20.3189
-25.1734
-30.6289
-36.5774
-42.8512
-49.2209
-55.401
-61.0618
-65.8497
-69.4123
-71.4178
-71.4072
-69.0474
-64.1105
-56.5001
-46.3277
-34.0864
-20.8561
-8.41704
0.958357
5.29133
4.2095
-0.216606
-6.20759
-6.67722
-7.27486
-8.14
-9.39652
-11.1458
-13.4724
-16.4473
-20.1258
-24.5391
-29.6835
-35.5082
-41.9052
-48.7025
-55.6624
-62.487
-68.8312
-74.323
-78.5878
-81.2743
-81.9857
-80.36
-76.0726
-68.887
-58.7109
-45.7864
-30.9883
-16.1083
-3.8432
2.94047
2.90207
-2.06858
-10.0877
-10.5126
-11.0461
-11.8194
-12.9682
-14.614
-16.861
-19.797
-23.4906
-27.983
-33.2765
-39.3232
-46.0149
-53.1763
-60.5635
-67.8705
-74.7425
-80.7973
-85.6498
-88.9346
-90.302
-89.4119
-85.8981
-79.3886
-69.5884
-56.4405
-40.4943
-23.3731
-8.04528
1.70489
3.2363
-2.17343
-13.9679
-14.3609
-14.7916
-15.3866
-16.3081
-17.7129
-19.736
-22.4878
-26.0523
-30.4794
-35.7759
-41.8939
-48.724
-56.0875
-63.7363
-71.3592
-78.5963
-85.0609
-90.3647
-94.1401
-96.0536
-95.8103
-93.0575
-87.3242
-78.1305
-65.1075
-48.3889
-29.2468
-10.708
2.58541
6.38379
0.778145
-17.8605
-18.2442
-18.5188
-18.8188
-19.3585
-20.3543
-21.9877
-24.3985
-27.6872
-31.91
-37.0745
-43.132
-49.9677
-57.3971
-65.1661
-72.959
-80.4133
-87.1417
-92.7578
-96.8979
-99.2312
-99.4845
-97.3451
-92.311
-83.7424
-70.9754
-53.6795
-32.6099
-10.6008
6.99775
14.0622
8.76633
-21.8321
-22.2383
-22.2767
-22.1196
-22.0786
-22.4657
-23.5282
-25.4442
-28.3288
-32.2395
-37.178
-43.0858
-49.8379
-57.2399
-65.0299
-72.8866
-80.4452
-87.3188
-93.1237
-97.5006
-100.124
-100.698
-98.8972
-94.281
-86.1218
-73.4488
-55.4677
-32.2747
-6.2373
16.8257
28.6999
24.7074
-26.0374
-26.5009
-26.1683
-25.3199
-24.4402
-23.9869
-24.2941
-25.574
-27.9498
-31.471
-36.1237
-41.8316
-48.4529
-55.7794
-63.5383
-71.4016
-79.0008
-85.9484
-91.8607
-96.3776
-99.1718
-99.9292
-98.2442
-93.6044
-85.2491
-72.1535
-52.9975
-27.0566
4.06234
34.4257
53.5845
52.7633
-30.7924
-31.3246
-30.3714
-28.4768
-26.4196
-24.8595
-24.229
-24.7568
-26.5569
-29.6546
-34.0069
-39.5097
-45.9979
-53.2446
-60.9643
-68.8204
-76.4396
-83.4307
-89.4047
-93.9917
-96.8475
-97.6402
-95.8757
-90.8801
-81.7427
-67.1602
-45.6361
-15.793
22.1044
62.5597
92.9478
98.6794
-36.7431
-37.2429
-35.1715
-31.6685
-27.9855
-25.0238
-23.2927
-22.997
-24.207
-26.8986
-30.9832
-36.3186
-42.71
-49.9088
-57.6143
-65.4805
-73.1277
-80.158
-86.1712
-90.7773
-93.5981
-94.2526
-92.2108
-86.5187
-76.0003
-58.9841
-33.4032
2.68666
49.7743
104.225
151.914
170.145
-45.2735
-45.2373
-40.9982
-34.9629
-29.0622
-24.3968
-21.451
-20.3264
-20.995
-23.3516
-27.2446
-32.4847
-38.8429
-46.0469
-53.7807
-61.6883
-69.3823
-76.4557
-82.4922
-87.072
-89.7658
-90.1112
-87.5508
-80.7906
-68.2529
-47.7755
-16.5513
28.3883
88.8502
162.324
236.161
277.179
-59.5248
-57.0599
-48.3461
-38.2476
-29.3915
-22.7734
-18.6001
-16.7357
-16.9883
-19.1373
-22.9536
-28.1958
-34.5999
-41.8709
-49.6782
-57.6566
-65.4114
-72.5251
-78.5621
-83.066
-85.5445
-85.4331
-82.0336
-73.8231
-58.6223
-33.6649
4.7537
60.9593
138.887
239.14
350.902
432.512
-86.9517
-75.2019
-56.9867
-40.5332
-28.0721
-19.4921
-14.2803
-11.9398
-12.0327
-14.1945
-18.1122
-23.4945
-30.0477
-37.4595
-45.3893
-53.4664
-61.2911
-68.4367
-74.4475
-78.8273
-81.0112
-80.3115
-75.8286
-65.7751
-47.4034
-17.29
29.2671
98.3152
197.046
332.283
501.435
651.342
-144.744
-99.054
-62.3948
-37.6877
-21.9315
-12.3197
-7.04268
-5.00807
-5.5284
-8.13414
-12.467
-18.2166
-25.0825
-32.7515
-40.8856
-49.1178
-57.0497
-64.2503
-70.2476
-74.5088
-76.3978
-75.099
-69.4903
-57.461
-35.9958
-1.11663
52.7746
133.582
252.975
429.684
691.173
1006.41
-287.328
-106.401
-43.0584
-17.0027
-4.32261
2.17675
4.9827
5.1372
3.18245
-0.532377
-5.73414
-12.1715
-19.586
-27.6953
-36.1856
-44.7078
-52.8762
-60.2653
-66.3988
-70.7249
-72.5647
-71.0168
-64.7714
-51.6587
-28.6372
8.50516
65.7876
152.253
283.266
491.401
864.425
1631.59
VECTORS velocity double
8.20057e-05 -8.20057e-05 0
0.0001658 -1.78856e-06 0
2.91482e-05 0.00013844 0
-0.000375767 0.000266475 0
-0.00100696 0.000364713 0
-0.00180804 0.000436369 0
-0.0027334 0.000488999 0
-0.00375026 0.000527858 0
-0.00483239 0.000554274 0
-0.0059529 0.000566229 0
-0.00707877 0.000559643 0
-0.00816809 0.000529684 0
-0.00916966 0.000471887 0
-0.0100247 0.000383099 0
-0.0106701 0.000262307 0
-0.0110437 0.000111354 0
-0.0110905 -6.45757e-05 0
-0.010769 -0.000256969 0
-0.0100601 -0.000451883 0
-0.00897656 -0.000631653 0
-0.00756819 -0.00077672 0
-0.00592324 -0.000868233 0
-0.00416373 -0.000891275 0
-0.00243424 -0.000838217 0
-0.000884617 -0.000711405 0
0.000351126 -0.000524339 0
0.00117642 -0.000300953 0
0.00154886 -7.14927e-05 0
0.00149117 0.000129182 0
0.00109955 0.000262444 0
0.000555497 0.000281604 0
0.000136947 0.000136946 0
-1.73914e-06 -0.000162272 0
-0.000253333 0.000246278 0
-0.00106168 0.00083537 0
-0.00246074 0.00137352 0
-0.00436889 0.00179701 0
-0.00667603 0.0021123 0
-0.00928035 0.00234276 0
-0.0120943 0.00250487 0
-0.0150364 0.00260156 0
-0.018021 0.00262397 0
-0.0209494 0.00255618 0
-0.0237072 0.00238036 0
-0.0261657 0.00208123 0
-0.0281867 0.00164973 0
-0.0296317 0.00108611 0
-0.0303728 0.000402308 0
-0.0303051 -0.000376452 0
-0.0293611 -0.00121064 0
-0.0275249 -0.00204321 0
-0.0248444 -0.00280435 0
-0.0214389 -0.00341798 0
-0.0174997 -0.0038111 0
-0.0132824 -0.00392518 0
-0.00908774 -0.00372848 0
-0.00523184 -0.00322666 0
-0.00200779 -0.00246887 0
0.000357407 -0.0015469 0
0.00174512 -0.000585703 0
0.00217622 0.000269984 0
0.00182699 0.000862493 0
0.00103277 0.00101982 0
0.00028808 0.000561973 0
-0.000181809 2.12759e-05 0
-0.00100586 0.00113838 0
-0.00273936 0.00248512 0
-0.00530613 0.0036896 0
-0.00856208 0.00464502 0
-0.0123528 0.00536211 0
-0.0165359 0.00588045 0
-0.0209812 0.00622631 0
-0.0255594 0.00640057 0
-0.0301325 0.00638253 0
-0.0345461 0.00613964 0
-0.0386294 0.00563807 0
-0.0421992 0.00485178 0
-0.0450689 0.0037698 0
-0.0470597 0.00240188 0
-0.0480146 0.000782537 0
-0.0478126 -0.00102636 0
-0.0463839 -0.00293351 0
-0.0437225 -0.00481782 0
-0.0398984 -0.00653437 0
-0.0350654 -0.00792655 0
-0.029464 -0.00884313 0
-0.0234146 -0.00915979 0
-0.0173 -0.00880311 0
-0.0115344 -0.00777355 0
-0.00651862 -0.00616185 0
-0.00258509 -0.00415265 0
5.95615e-05 -0.00201232 0
0.00138605 -6.09795e-05 0
0.00157399 0.00135474 0
0.00101382 0.00188196 0
0.000304144 0.0011542 0
-0.000399113 0.000602198 0
-0.00190558 0.00288797 0
-0.00470582 0.00526926 0
-0.00855215 0.00731857 0
-0.0132089 0.00892873 0
-0.0184712 0.0101314 0
-0.0241618 0.0109849 0
-0.0301167 0.0115219 0
-0.0361698 0.0117364 0
-0.0421425 0.0115925 0
-0.0478395 0.0110404 0
-0.0530516 0.0100326 0
-0.057562 0.00853747 0
-0.0611577 0.00654944 0
-0.0636413 0.00409669 0
-0.0648446 0.0012459 0
-0.0646414 -0.00189487 0
-0.0629592 -0.00517598 0
-0.059789 -0.00840687 0
-0.0551979 -0.0113606 0
-0.0493408 -0.0137904 0
-0.0424677 -0.0154538 0
-0.0349227 -0.0161434 0
-0.0271329 -0.0157239 0
-0.0195807 -0.0141706 0
-0.0127594 -0.011602 0
-0.00710938 -0.00829598 0
-0.00294511 -0.00467792 0
-0.000385155 -0.00128183 0
0.000697042 0.00130545 0
0.000692112 0.00249635 0
0.000241625 0.00169996 0
-0.00063067 0.00163198 0
-0.00286479 0.00559878 0
-0.00679205 0.00928596 0
-0.0119623 0.0123184 0
-0.0180301 0.0146535 0
-0.0247349 0.0163738 0
-0.0318671 0.0175654 0
-0.0392371 0.0182664 0
-0.0466533 0.0184611 0
-0.0539105 0.0180975 0
-0.060788 0.01711 0
-0.0670543 0.0154414 0
-0.0724753 0.0130601 0
-0.0768251 0.00997216 0
-0.0798968 0.00622934 0
-0.0815143 0.00193407 0
-0.0815421 -0.00275841 0
-0.0798921 -0.00764467 0
-0.0765313 -0.0124691 0
-0.0714979 -0.0169229 0
-0.0649187 -0.0206643 0
-0.0570241 -0.0233477 0
-0.0481549 -0.0246636 0
-0.0387607 -0.0243878 0
-0.0293804 -0.0224391 0
-0.0206008 -0.0189345 0
-0.0129881 -0.0142263 0
-0.00699736 -0.00890257 0
-0.00287721 -0.00373727 0
-0.000595454 0.000396933 0
0.000195147 0.0026192 0
0.000140583 0.00208217 0
-0.000864815 0.00312747 0
-0.00383182 0.00930441 0
-0.00888565 0.0145614 0
-0.0153641 0.0186916 0
-0.0228074 0.0217914 0
-0.0308988 0.0240321 0
-0.0394011 0.0255416 0
-0.0481071 0.0263663 0
-0.0568106 0.0264808 0
-0.0652928 0.0258173 0
-0.0733216 0.0242966 0
-0.0806559 0.0218554 0
-0.087054 0.0184652 0
-0.0922827 0.0141454 0
-0.096126 0.0089712 0
-0.0983941 0.00307778 0
-0.0989301 -0.00333825 0
-0.0976151 -0.01003 0
-0.094373 -0.0166867 0
-0.089191 -0.0229208 0
-0.082145 -0.0282916 0
-0.0734218 -0.0323383 0
-0.0633371 -0.0346268 0
-0.0523445 -0.0348113 0
-0.041029 -0.0327114 0
-0.0300737 -0.028397 0
-0.020192 -0.0222583 0
-0.0120202 -0.015033 0
-0.00598969 -0.00775754 0
-0.00221148 -0.00164277 0
-0.000418428 0.00207525 0
1.97513e-05 0.00224251 0
-0.00109209 0.00508437 0
-0.0047652 0.0139876 0
-0.0108957 0.0210625 0
-0.0186154 0.0263887 0
-0.0273557 0.0302779 0
-0.0367493 0.0330306 0
-0.0465373 0.0348333 0
-0.0565032 0.0357465 0
-0.066436 0.0357369 0
-0.0761149 0.0347223 0
-0.0853062 0.0326117 0
-0.0937677 0.0293362 0
-0.101255 0.0248698 0
-0.107527 0.019242 0
-0.112355 0.0125459 0
-0.115526 0.00494139 0
-0.116848 -0.00334338 0
-0.11616 -0.0120275 0
-0.113332 -0.0207595 0
-0.108284 -0.0290778 0
-0.101024 -0.0364408 0
-0.0916744 -0.0422618 0
-0.0805028 -0.0459596 0
-0.0679437 -0.0470301 0
-0.0546091 -0.0451428 0
-0.0412719 -0.0402581 0
-0.0288063 -0.0327446 0
-0.0180712 -0.0234535 0
-0.00974379 -0.0136949 0
-0.00414652 -0.00508087 0
-0.00113884 0.00071262 0
-0.000117071 0.00214519 0
-0.00130255 0.007479 0
-0.00562468 0.0195883 0
-0.0127382 0.0287059 0
-0.021587 0.0353137 0
-0.0315064 0.0400125 0
-0.0420872 0.0432704 0
-0.053056 0.0453502 0
-0.0641943 0.0463338 0
-0.075295 0.0461831 0
-0.0861428 0.0448028 0
-0.0965101 0.0420898 0
-0.106158 0.0379677 0
-0.114841 0.0324081 0
-0.122308 0.0254436 0
-0.128312 0.0171754 0
-0.132607 0.00777742 0
-0.134962 -0.00250167 0
-0.135167 -0.013352 0
-0.133032 -0.0243984 0
-0.128405 -0.0351139 0
-0.121212 -0.0448578 0
-0.111495 -0.0529119 0
-0.0994454 -0.0585302 0
-0.0854487 -0.0610152 0
-0.070111 -0.05983 0
-0.05427 -0.054749 0
-0.0389576 -0.0460318 0
-0.0252859 -0.0345732 0
-0.0142471 -0.0219415 0
-0.00646331 -0.0102154 0
-0.00198979 -0.00163409 0
-0.000273891 0.00175422 0
-0.0014855 0.010267 0
-0.00636938 0.0260062 0
-0.0143315 0.0373637 0
-0.0241561 0.0453294 0
-0.035099 0.0508592 0
-0.0467186 0.0546241 0
-0.0587335 0.0569801 0
-0.0709296 0.0580383 0
-0.0831092 0.0577589 0
-0.0950687 0.0560343 0
-0.106591 0.0527474 0
-0.117442 0.0478096 0
-0.127376 0.0411826 0
-0.136131 0.0328923 0
-0.143438 0.0230368 0
-0.14902 0.011793 0
-0.152602 -0.000580254 0
-0.153924 -0.0137461 0
-0.152742 -0.0273216 0
-0.148831 -0.0407281 0
-0.142032 -0.0532357 0
-0.132286 -0.0639974 0
-0.119686 -0.0720942 0
-0.104526 -0.076608 0
-0.0873599 -0.0767409 0
-0.069045 -0.071994 0
-0.0507402 -0.0624039 0
-0.0338192 -0.0487938 0
-0.0196513 -0.0329275 0
-0.00926565 -0.0173988 0
-0.00301928 -0.00517059 0
-0.000462396 0.00101794 0
-0.00163004 0.0133826 0
-0.00695906 0.0331036 0
-0.0155975 0.0468669 0
-0.0262062 0.0562593 0
-0.0379797 0.0626457 0
-0.0504527 0.0669301 0
-0.0633407 0.0695771 0
-0.0764377 0.0707344 0
-0.0895593 0.0703641 0
-0.102517 0.068346 0
-0.115105 0.0645461 0
-0.1271 0.0588575 0
-0.138255 0.0512236 0
-0.148302 0.0416533 0
-0.15695 0.0302309 0
-0.163895 0.0171257 0
-0.168825 0.00259889 0
-0.171436 -0.0129915 0
-0.171436 -0.0292586 0
-0.168541 -0.0455966 0
-0.162503 -0.0612051 0
-0.153153 -0.0751233 0
-0.140457 -0.0862649 0
-0.124577 -0.0934778 0
-0.105956 -0.0956582 0
-0.0854018 -0.0919457 0
-0.0641412 -0.0820176 0
-0.043782 -0.0664603 0
-0.0261103 -0.0471005 0
-0.0126774 -0.0270443 0
-0.00428935 -0.0101595 0
-0.000697465 -0.000141923 0
-0.00172601 0.0167386 0
-0.00735683 0.0407074 0
-0.0164652 0.05701 0
-0.0276311 0.0678907 0
-0.0400064 0.0751631 0
-0.0531084 0.0799876 0
-0.0666519 0.0829512 0
-0.0804402 0.0842456 0
-0.0943039 0.0838381 0
-0.10807 0.0815959 0
-0.121551 0.0773649 0
-0.134531 0.0710141 0
-0.14677 0.0624612 0
-0.157997 0.0516893 0
-0.167914 0.0387599 0
-0.176198 0.0238257 0
-0.182511 0.00714234 0
-0.186513 -0.0109222 0
-0.187878 -0.0299627 0
-0.186281 -0.0493841 0
-0.181394 -0.0683435 0
-0.172933 -0.0857952 0
-0.160714 -0.100508 0
-0.144725 -0.111103 0
-0.125235 -0.116144 0
-0.102917 -0.114331 0
-0.0789751 -0.104835 0
-0.0551809 -0.087796 0
-0.0337356 -0.0648818 0
-0.0168175 -0.0396141 0
-0.00586648 -0.0169289 0
-0.000995759 -0.00183515 0
-0.0017651 0.0202297 0
-0.00753255 0.0486145 0
-0.0168764 0.0675551 0
-0.0283429 0.079978 0
-0.0410585 0.0881667 0
-0.0545271 0.0935546 0
-0.0684624 0.0968631 0
-0.0826761 0.0983357 0
-0.0970131 0.0979486 0
-0.111318 0.0955571 0
-0.125419 0.0909851 0
-0.139119 0.0840736 0
-0.152188 0.0747097 0
-0.164365 0.0628447 0
-0.175354 0.0485111 0
-0.184834 0.031838 0
-0.192458 0.013067 0
-0.197866 -0.00743692 0
-0.200718 -0.0292305 0
-0.200663 -0.0517684 0
-0.197307 -0.0742024 0
-0.190261 -0.0954439 0
-0.179178 -0.114161 0
-0.163838 -0.128779 0
-0.144268 -0.137529 0
-0.120915 -0.138616 0
-0.0948404 -0.130567 0
-0.0678681 -0.112831 0
-0.0425559 -0.0866046 0
-0.0217769 -0.0555885 0
-0.00781353 -0.0258688 0
-0.00137427 -0.00420517 0
-0.00174196 0.0237368 0
-0.00746654 0.0565995 0
-0.0167921 0.0782396 0
-0.0282805 0.0922485 0
-0.0410488 0.10138 0
-0.0545893 0.10735 0
-0.0686118 0.111025 0
-0.0829331 0.112709 0
-0.0974106 0.11239 0
-0.111907 0.109917 0
-0.126269 0.105089 0
-0.140321 0.0977207 0
-0.153855 0.0876655 0
-0.166631 0.0748415 0
-0.178376 0.0592491 0
-0.188786 0.04099 0
-0.197531 0.0202843 0
-0.204263 -0.00251467 0
-0.208636 -0.0269275 0
-0.210288 -0.0524741 0
-0.208796 -0.078345 0
-0.203677 -0.103467 0
-0.194428 -0.126471 0
-0.180593 -0.145644 0
-0.161903 -0.158924 0
-0.13848 -0.163998 0
-0.111109 -0.158632 0
-0.0815135 -0.141334 0
-0.0524863 -0.112441 0
-0.0275996 -0.0754183 0
-0.0101837 -0.0374182 0
-0.00184963 -0.00742908 0
-0.00165522 0.027134 0
-0.00715286 0.0644246 0
-0.0161985 0.0887857 0
-0.0274187 0.104411 0
-0.0399365 0.114504 0
-0.0532323 0.121063 0
-0.0670073 0.12511 0
-0.0810791 0.127017 0
-0.0953151 0.126796 0
-0.109594 0.124287 0
-0.123787 0.119274 0
-0.137743 0.111543 0
-0.151286 0.10092 0
-0.164213 0.0872895 0
-0.176289 0.0706225 0
-0.187254 0.0509919 0
-0.196819 0.0285927 0
-0.20467 0.00375912 0
-0.210477 -0.0230208 0
-0.213895 -0.0513106 0
-0.214502 -0.0803934 0
-0.21176 -0.10928 0
-0.205018 -0.136648 0
-0.193582 -0.160738 0
-0.176842 -0.179261 0
-0.154507 -0.189418 0
-0.126948 -0.188141 0
-0.0956014 -0.172767 0
-0.0633108 -0.142325 0
-0.034268 -0.0994629 0
-0.0130148 -0.0520428 0
-0.00243731 -0.011716 0
-0.00150822 0.0302974 0
-0.00660201 0.0718526 0
-0.0151119 0.0989132 0
-0.0257762 0.116168 0
-0.0377377 0.127226 0
-0.0504644 0.134364 0
-0.0636435 0.138764 0
-0.0770884 0.14088 0
-0.0906731 0.140753 0
-0.104293 0.138228 0
-0.117844 0.133075 0
-0.131206 0.12506 0
-0.144244 0.113984 0
-0.156803 0.0997095 0
-0.168705 0.0821809 0
-0.179753 0.0614466 0
-0.189725 0.0376755 0
-0.198371 0.011173 0
-0.205397 -0.0176012 0
-0.210504 -0.0482055 0
-0.213319 -0.0800757 0
-0.21328 -0.11238 0
-0.209629 -0.14394 0
-0.201443 -0.173066 0
-0.187755 -0.197361 0
-0.167792 -0.213615 0
-0.141375 -0.21792 0
-0.109453 -0.206256 0
-0.0746819 -0.175898 0
-0.0416939 -0.127921 0
-0.0163257 -0.070206 0
-0.00315134 -0.0173047 0
-0.00130928 0.0331149 0
-0.00584224 0.0786618 0
-0.0135824 0.108354 0
-0.0234203 0.127229 0
-0.0345324 0.139238 0
-0.0463741 0.14692 0
-0.0586138 0.151626 0
-0.0710557 0.153904 0
-0.083578 0.153836 0
-0.0960923 0.15128 0
-0.10852 0.146002 0
-0.120779 0.137756 0
-0.132781 0.126329 0
-0.144424 0.111567 0
-0.155602 0.0934026 0
-0.166195 0.0718658 0
-0.17607 0.0471037 0
-0.185066 0.0193874 0
-0.192978 -0.0108782 0
-0.199574 -0.0432249 0
-0.204546 -0.0772694 0
-0.207366 -0.112406 0
-0.207223 -0.147709 0
-0.20301 -0.181696 0
-0.193411 -0.212019 0
-0.177133 -0.235199 0
-0.153333 -0.246553 0
-0.122273 -0.240605 0
-0.0861348 -0.212459 0
-0.0497177 -0.160765 0
-0.0201144 -0.0923333 0
-0.00400504 -0.024461 0
-0.00107162 0.0354958 0
-0.00491976 0.084662 0
-0.011694 0.116868 0
-0.0204688 0.137328 0
-0.0304671 0.15025 0
-0.0411329 0.158415 0
-0.0521128 0.16335 0
-0.0631983 0.165707 0
-0.0742706 0.165627 0
-0.0852579 0.162991 0
-0.0961105 0.157571 0
-0.106787 0.149122 0
-0.117247 0.137424 0
-0.127452 0.122321 0
-0.137367 0.103741 0
-0.14696 0.0817123 0
-0.156197 0.0563695 0
-0.165035 0.0279562 0
-0.173391 -0.00317916 0
-0.181131 -0.0365884 0
-0.188028 -0.0720366 0
-0.193648 -0.109198 0
-0.197199 -0.147509 0
-0.197459 -0.185848 0
-0.192814 -0.222111 0
-0.181449 -0.252751 0
-0.161784 -0.272466 0
-0.133205 -0.274332 0
-0.0971173 -0.250958 0
-0.0581163 -0.197684 0
-0.0243615 -0.118773 0
-0.00501315 -0.0334792 0
-0.000812824 0.0373802 0
-0.0038976 0.0897105 0
-0.00956462 0.124261 0
-0.0170894 0.146234 0
-0.0257526 0.160005 0
-0.034991 0.168565 0
-0.0444287 0.173618 0
-0.0538448 0.175941 0
-0.0631236 0.175745 0
-0.0722125 0.17295 0
-0.0810943 0.167347 0
-0.0897703 0.158698 0
-0.098254 0.146791 0
-0.10657 0.131475 0
-0.114754 0.112687 0
-0.122862 0.0904662 0
-0.130961 0.0649527 0
-0.139129 0.0363791 0
-0.147423 0.00504826 0
-0.155827 -0.0286723 0
-0.16424 -0.0646424 0
-0.172367 -0.102845 0
-0.179513 -0.143166 0
-0.184439 -0.185004 0
-0.185325 -0.226714 0
-0.179892 -0.264946 0
-0.165795 -0.294032 0
-0.141401 -0.305739 0
-0.107027 -0.290012 0
-0.0666178 -0.238041 0
-0.0290369 -0.149752 0
-0.00619643 -0.0446888 0
-0.000554117 0.0387472 0
-0.00285396 0.0937282 0
-0.00734331 0.1304 0
-0.0134966 0.153774 0
-0.0206596 0.168292 0
-0.0282681 0.177125 0
-0.0359293 0.182157 0
-0.0434132 0.184302 0
-0.0506115 0.183861 0
-0.0574955 0.180807 0
-0.0640852 0.174961 0
-0.0704295 0.166104 0
-0.0765979 0.154037 0
-0.0826775 0.138624 0
-0.0887751 0.119821 0
-0.0950219 0.0976869 0
-0.101577 0.0723867 0
-0.108625 0.044162 0
-0.116355 0.0132882 0
-0.124892 -0.0199711 0
-0.134283 -0.0555395 0
-0.144407 -0.0936972 0
-0.154744 -0.134832 0
-0.16416 -0.178995 0
-0.170767 -0.22523 0
-0.171941 -0.27069 0
-0.164625 -0.309699 0
-0.146077 -0.333014 0
-0.115247 -0.327941 0
-0.0749187 -0.280848 0
-0.0341121 -0.185332 0
-0.00758818 -0.0584734 0
-0.000319823 0.0396211 0
-0.00188095 0.0967152 0
-0.00520906 0.13523 0
-0.00994895 0.159837 0
-0.0155116 0.174955 0
-0.0213427 0.183901 0
-0.0270434 0.188742 0
-0.0323844 0.190542 0
-0.0372738 0.189709 0
-0.0417143 0.186283 0
-0.0457697 0.180129 0
-0.0495419 0.171052 0
-0.0531595 0.158875 0
-0.056773 0.14348 0
-0.0605553 0.124845 0
-0.0647045 0.103058 0
-0.0694496 0.0783155 0
-0.0750542 0.0508862 0
-0.081808 0.021047 0
-0.0899844 -0.0110166 0
-0.0997773 -0.0453101 0
-0.111236 -0.0823444 0
-0.124081 -0.123002 0
-0.137414 -0.168074 0
-0.149465 -0.217493 0
-0.157458 -0.26926 0
-0.157769 -0.318134 0
-0.146556 -0.354341 0
-0.121167 -0.362834 0
-0.0826933 -0.324757 0
-0.0395688 -0.225354 0
-0.00924114 -0.0753027 0
-0.000137558 0.0400785 0
-0.00108542 0.0987668 0
-0.00337158 0.138793 0
-0.00674779 0.16439 0
-0.0106803 0.179896 0
-0.0146392 0.18875 0
-0.01824 0.193196 0
-0.0212725 0.194462 0
-0.0236753 0.193081 0
-0.0254944 0.189171 0
-0.0268454 0.182648 0
-0.027888 0.173349 0
-0.0288132 0.161121 0
-0.0298368 0.14587 0
-0.0311957 0.127595 0
-0.0331479 0.106409 0
-0.0359764 0.082538 0
-0.0399934 0.0562853 0
-0.0455444 0.0279527 0
-0.052995 -0.00229528 0
-0.062656 -0.0345775 0
-0.0747307 -0.0695439 0
-0.0892002 -0.108488 0
-0.105516 -0.152939 0
-0.122234 -0.20386 0
-0.1367 -0.260433 0
-0.144979 -0.318371 0
-0.142265 -0.368031 0
-0.12418 -0.392617 0
-0.0895825 -0.368045 0
-0.0453969 -0.269376 0
-0.0112305 -0.0957744 0
-4.01856e-05 0.0402563 0
-0.0005946 0.100091 0
-0.00207807 0.141238 0
-0.00424094 0.167484 0
-0.00658177 0.183076 0
-0.00861657 0.191564 0
-0.0100083 0.195374 0
-0.0105947 0.195903 0
-0.0103675 0.193815 0
-0.00943107 0.189319 0
-0.00796264 0.182382 0
-0.00618488 0.172879 0
-0.00435355 0.160685 0
-0.00275023 0.145727 0
-0.00167514 0.128023 0
-0.00144354 0.107703 0
-0.00238293 0.0850124 0
-0.00483198 0.060277 0
-0.00914347 0.0338234 0
-0.01569 0.00583116 0
-0.0248326 -0.0239004 0
-0.0368754 -0.0561035 0
-0.0520195 -0.0923153 0
-0.0701249 -0.13469 0
-0.0902735 -0.185242 0
-0.110261 -0.244598 0
-0.126224 -0.309965 0
-0.132705 -0.372671 0
-0.123629 -0.415139 0
-0.0951453 -0.408604 0
-0.0515659 -0.316583 0
-0.0136475 -0.120652 0
-7.12901e-05 0.0403677 0
-0.00057089 0.101034 0
-0.00163039 0.142838 0
-0.00283297 0.169249 0
-0.00367556 0.184494 0
-0.00375502 0.19226 0
-0.00283243 0.195147 0
-0.000836421 0.19472 0
0.00215739 0.191777 0
0.00596563 0.186613 0
0.010337 0.179249 0
0.014976 0.169595 0
0.0195581 0.157555 0
0.0237387 0.143073 0
0.0271598 0.12618 0
0.029458 0.107015 0
0.0302738 0.0858235 0
0.0292626 0.0629262 0
0.026102 0.0386463 0
0.0204892 0.0131677 0
0.012105 -0.0137102 0
0.000614914 -0.0427607 0
-0.0143291 -0.07557 0
-0.0329474 -0.114712 0
-0.0549621 -0.163058 0
-0.0789472 -0.22281 0
-0.101609 -0.293128 0
-0.117361 -0.367276 0
-0.118706 -0.428265 0
-0.0987546 -0.443912 0
-0.0579536 -0.365655 0
-0.0165763 -0.150876 0
-0.000297306 0.0407363 0
-0.00124255 0.10211 0
-0.00241719 0.143996 0
-0.00300252 0.169879 0
-0.00246178 0.184166 0
-0.000533428 0.190739 0
0.00285227 0.192359 0
0.00760842 0.190755 0
0.0135223 0.186834 0
0.0203101 0.18096 0
0.0276399 0.173201 0
0.0351469 0.163498 0
0.0424454 0.151772 0
0.0491371 0.137983 0
0.0548187 0.122167 0
0.0590922 0.104457 0
0.0615798 0.0850786 0
0.0619398 0.0643223 0
0.0598794 0.0424712 0
0.0551557 0.0196793 0
0.0475452 -0.00422721 0
0.0368088 -0.0300171 0
0.0226627 -0.0592236 0
0.00468832 -0.0944654 0
-0.017525 -0.139076 0
-0.043566 -0.196766 0
-0.0712339 -0.268843 0
-0.0955722 -0.35147 0
-0.108294 -0.430003 0
-0.0994191 -0.471001 0
-0.0642106 -0.414576 0
-0.0200454 -0.187498 0
-0.000831568 0.0418652 0
-0.00295851 0.104053 0
-0.00496182 0.145231 0
-0.0053177 0.169586 0
-0.00346272 0.182064 0
0.000612259 0.186838 0
0.00668356 0.186803 0
0.0144225 0.183816 0
0.0234427 0.178839 0
0.0333388 0.172271 0
0.0436951 0.164204 0
0.0540864 0.154596 0
0.0640811 0.14338 0
0.0732456 0.130519 0
0.0811517 0.116044 0
0.0873886 0.10007 0
0.0915797 0.0827871 0
0.0934001 0.0644335 0
0.0925917 0.0452287 0
0.0889655 0.0252716 0
0.0823763 0.00438022 0
0.0726499 -0.0181617 0
0.0595296 -0.0438126 0
0.0426297 -0.075002 0
0.0214432 -0.115139 0
-0.00459149 -0.168626 0
-0.0350045 -0.238901 0
-0.0663817 -0.325697 0
-0.0907459 -0.418691 0
-0.0955128 -0.486421 0
-0.0695321 -0.460345 0
-0.0239413 -0.231485 0
-0.00187742 0.0445742 0
-0.00627045 0.107864 0
-0.00996418 0.147117 0
-0.010407 0.168498 0
-0.00714065 0.17803 0
-0.000611321 0.180268 0
0.00850685 0.178184 0
0.0195545 0.173649 0
0.0319369 0.167604 0
0.0451199 0.160427 0
0.0586131 0.152198 0
0.0719492 0.142874 0
0.0846739 0.132383 0
0.0963441 0.120682 0
0.106533 0.107786 0
0.114843 0.0937807 0
0.120919 0.0788088 0
0.124468 0.0630426 0
0.125269 0.0466268 0
0.123176 0.0295928 0
0.118092 0.0117326 0
0.1099 -0.00759605 0
0.0983595 -0.0297175 0
0.0830598 -0.0568976 0
0.0633913 -0.0923887 0
0.03851 -0.140461 0
0.00765341 -0.205797 0
-0.0283573 -0.291413 0
-0.0636541 -0.393314 0
-0.0843981 -0.486287 0
-0.0722909 -0.498566 0
-0.0278595 -0.283286 0
-0.00379328 0.0502449 0
-0.0120096 0.114803 0
-0.0182331 0.150096 0
-0.0187287 0.166458 0
-0.0135489 0.171624 0
-0.00392624 0.170522 0
0.00884361 0.166042 0
0.0237001 0.159887 0
0.0398246 0.152859 0
0.0565724 0.14524 0
0.0734063 0.137057 0
0.0898479 0.128238 0
0.105452 0.118691 0
0.119795 0.108359 0
0.132483 0.0972315 0
0.143154 0.0853545 0
0.151495 0.0728176 0
0.157255 0.0597249 0
0.160252 0.0461468 0
0.160368 0.03205 0
0.157528 0.0171996 0
0.15164 0.00101668 0
0.142465 -0.0176144 0
0.129544 -0.0407804 0
0.112131 -0.0714241 0
0.0890709 -0.113484 0
0.0589058 -0.171752 0
0.0206349 -0.251176 0
-0.0236263 -0.353992 0
-0.0619453 -0.466546 0
-0.0694504 -0.52291 0
-0.0308391 -0.341984 0
-0.00714704 0.0611852 0
-0.02118 0.126112 0
-0.0301451 0.153975 0
-0.029667 0.162596 0
-0.0211999 0.161839 0
-0.00721165 0.156695 0
0.0102474 0.14964 0
0.0297135 0.141966 0
0.050188 0.134181 0
0.0709746 0.126385 0
0.0915415 0.118512 0
0.111443 0.11044 0
0.13028 0.102049 0
0.147683 0.0932547 0
0.163313 0.0840174 0
0.176869 0.0743424 0
0.188091 0.0642663 0
0.196775 0.0538319 0
0.202771 0.0430477 0
0.205971 0.0318326 0
0.206289 0.0199392 0
0.203603 0.00685069 0
0.197692 -0.00836166 0
0.188044 -0.0274644 0
0.173704 -0.0529872 0
0.153175 -0.088332 0
0.124353 -0.137917 0
0.0848907 -0.207278 0
0.0338598 -0.302598 0
-0.0219879 -0.423773 0
-0.0556031 -0.524563 0
-0.0308614 -0.403685 0
-0.0125479 0.0808802 0
-0.0339169 0.141819 0
-0.0433858 0.156702 0
-0.0384789 0.154484 0
-0.0235771 0.146582 0
-0.00277431 0.137161 0
0.0211725 0.127768 0
0.0465612 0.118983 0
0.0723835 0.110867 0
0.0980062 0.103289 0
0.122982 0.096065 0
0.146955 0.089013 0
0.169612 0.0819818 0
0.19067 0.0748607 0
0.209869 0.0675818 0
0.226977 0.0601144 0
0.241797 0.0524522 0
0.254168 0.0445915 0
0.26396 0.0365004 0
0.271064 0.0280752 0
0.275361 0.0190823 0
0.276677 0.0090773 0
0.274716 -0.00271547 0
0.268886 -0.0176334 0
0.258063 -0.0376549 0
0.240389 -0.0654617 0
0.213158 -0.104734 0
0.172903 -0.160743 0
0.116294 -0.241494 0
0.0442448 -0.356981 0
-0.0213488 -0.492146 0
-0.0238231 -0.458369 0