# vtk DataFile Version 2.0
Lid-driven cavity
ASCII
DATASET STRUCTURED_POINTS
DIMENSIONS 32 32 1
ORIGIN 0.015625 0.015625 0
SPACING 0.03125 0.03125 1
POINT_DATA 1024
SCALARS pressure double 1
LOOKUP_TABLE default
52.2052
51.9833
51.5837
51.131
50.7018
50.3354
50.0516
49.8649
49.7915
49.8515
50.0673
50.4602
51.046
51.8297
52.8015
53.9329
55.1748
56.4599
57.6995
58.7935
59.6421
60.1617
60.2997
60.047
59.4434
58.575
57.5604
56.5349
55.6333
54.9711
54.6304
54.6194
52.427
52.1952
51.8603
51.495
51.147
50.8443
50.6042
50.4414
50.372
50.4155
50.593
50.9246
51.4255
52.1019
52.9466
53.9357
55.0261
56.1595
57.2557
58.2237
58.9728
59.4275
59.5417
59.3098
58.7719
58.0088
57.1295
56.2497
55.4809
54.9132
54.6109
54.6082
52.8419
52.51
52.1627
51.8283
51.5237
51.2581
51.0389
50.8763
50.7853
50.7851
50.8983
51.1471
51.5504
52.1194
52.853
53.7338
54.7253
55.7738
56.8023
57.7207
58.4379
58.8767
58.9885
58.7664
58.2496
57.519
56.6818
55.8514
55.1266
54.5863
54.2868
54.2721
53.3096
52.8338
52.4304
52.0882
51.7931
51.5336
51.3048
51.1108
50.9646
50.8867
50.9027
51.0405
51.326
51.7785
52.4059
53.1994
54.1296
55.144
56.1658
57.1016
57.8532
58.3337
58.4846
58.2908
57.7869
57.0537
56.2022
55.3496
54.5979
54.0214
53.6739
53.5973
53.6971
53.0609
52.5799
52.2034
51.8875
51.6002
51.3249
51.0597
50.8163
50.6176
50.4948
50.4836
50.6198
50.9339
51.4451
52.1558
53.0456
54.0623
55.1297
56.1486
57.0094
57.6085
57.8689
57.7579
57.2975
56.5643
55.6729
54.7512
53.9125
53.2402
52.7909
52.6061
53.875
53.0771
52.5093
52.0799
51.715
51.3642
50.9999
50.6161
50.2244
49.8518
49.5367
49.325
49.2648
49.4004
49.7654
50.3759
51.2245
52.2637
53.4208
54.591
55.6499
56.471
56.9482
57.0184
56.6783
55.9894
55.0663
54.0503
53.0771
52.2523
51.6475
51.3133
53.7142
52.7618
52.1048
51.6073
51.1661
50.7132
50.2126
49.6552
49.0545
48.4425
47.8667
47.3847
47.0594
46.9519
47.1136
47.5784
48.356
49.4155
50.6934
52.0828
53.4435
54.6197
55.4647
55.868
55.7818
55.2351
54.3311
53.2241
52.082
51.0506
50.2355
49.7115
53.0864
51.9925
51.2465
50.6666
50.1202
49.5237
48.834
48.0404
47.1586
46.2272
45.3033
44.4582
43.772
43.3256
43.1928
43.4306
44.0711
45.1152
46.5225
48.1902
49.9646
51.6564
53.0659
54.016
54.3879
54.1512
53.3767
52.2233
50.9001
49.6145
48.5329
47.7702
51.8682
50.6503
49.8163
49.1383
48.4556
47.6701
46.7326
45.631
44.3841
43.0365
41.6558
40.3283
39.1534
38.236
37.6777
37.5651
37.9596
38.9073
40.4159
42.3977
44.6921
47.076
49.2872
51.0609
52.1766
52.5068
52.0544
50.962
49.4811
47.9052
46.4957
45.4372
49.9492
48.6283
47.7069
46.913
46.0597
45.0356
43.7854
42.2958
40.5872
38.7101
36.7423
34.7857
32.9617
31.4036
30.2468
29.616
29.61
30.3248
31.8551
34.1445
37.038
40.285
43.5573
46.4852
48.7132
49.97
50.139
49.3051
47.7483
45.8698
44.0703
42.646
47.2401
45.8406
44.8319
43.9021
42.8411
41.5253
39.8931
37.9285
35.6522
33.1189
30.4158
27.6608
24.9992
22.5971
20.6309
19.2728
18.6726
18.9585
20.3663
22.8944
26.4123
30.6567
35.2397
39.6785
43.4543
46.1012
47.3154
47.0565
45.5929
43.4416
41.1956
39.3218
43.6826
42.2315
41.1352
40.0488
38.7422
37.0808
34.9962
32.4676
29.5142
26.1924
22.5971
18.862
15.1578
11.687
8.67309
6.34481
4.91399
4.55013
5.61792
8.23821
12.3258
17.6277
23.7156
30.0014
35.7884
40.3703
43.1784
43.9524
42.8703
40.5441
37.811
35.3918
39.2574
37.7837
36.6004
35.3377
33.7503
31.6933
29.0908
25.9156
22.182
17.946
13.3079
8.41598
3.46673
-1.29873
-5.60485
-9.15949
-11.6801
-12.9281
-12.475
-9.98736
-5.48261
0.827135
8.50711
16.8921
25.1166
32.2074
37.2564
39.6661
39.4002
37.0957
33.868
30.7991
33.989
32.5231
31.2559
29.8023
27.9062
25.4142
22.2421
18.3542
13.7577
8.50461
2.6985
-3.49993
-9.86918
-16.1288
-21.949
-26.9691
-30.8276
-33.2028
-33.6544
-31.5853
-26.9154
-19.7807
-10.5764
0.00644721
10.9746
21.0947
29.0671
33.8341
34.977
33.0202
29.3456
25.5202
27.9477
26.5204
25.1769
23.5269
21.3081
18.3604
14.5909
9.95366
4.44613
-1.88593
-8.93896
-16.5422
-24.4513
-32.348
-39.8485
-46.5229
-51.9258
-55.6392
-57.2537
-55.9197
-51.4176
-43.7759
-33.2982
-20.6315
-6.82153
6.69201
18.2098
26.1109
29.3967
28.2648
24.2724
19.5885
21.246
19.8872
18.4819
16.6438
14.1091
10.7125
6.35214
0.970557
-5.44658
-12.8624
-21.1758
-30.2089
-39.6977
-49.2893
-58.55
-66.9838
-74.0657
-79.2857
-82.2034
-81.9095
-77.9491
-70.2243
-58.9025
-44.508
-28.034
-11.022
4.48592
16.2534
22.5071
22.8312
18.757
13.1271
14.03
12.7672
11.3232
9.32399
6.50791
2.70519
-2.19566
-8.26467
-15.5297
-23.9648
-33.4738
-43.8743
-54.886
-66.1263
-77.1168
-87.3038
-96.0914
-102.889
-107.172
-108.129
-105.057
-97.7184
-86.1131
-70.5697
-51.9092
-31.6252
-11.972
4.22964
14.2817
16.8237
13.03
6.39109
6.46657
5.32308
3.87359
1.7633
-1.26583
-5.38903
-10.7289
-17.3702
-25.3557
-34.6722
-45.2303
-56.8454
-69.2242
-81.9586
-94.5332
-106.345
-116.741
-125.063
-130.707
-132.983
-131.05
-124.531
-113.248
-97.2822
-77.1711
-54.1856
-30.5933
-9.66606
4.9146
10.5178
7.50239
-0.172727
-1.27286
-2.28078
-3.69149
-5.83592
-8.97031
-13.2798
-18.9027
-25.9412
-34.4559
-44.4475
-55.8345
-68.4319
-81.9357
-95.917
-109.83
-123.033
-134.828
-144.51
-151.416
-154.939
-154.247
-148.866
-138.446
-122.811
-102.131
-77.2879
-50.3207
-24.7175
-5.0731
4.45124
2.84672
-5.84113
-9.03061
-9.89667
-11.2127
-13.2835
-16.3709
-20.6804
-26.3747
-33.58
-42.3775
-52.7834
-64.7244
-78.0154
-92.3435
-107.262
-122.201
-136.488
-149.396
-160.189
-168.178
-172.761
-173.258
-169.155
-159.973
-145.298
-124.91
-99.1719
-69.6504
-39.7391
-14.7345
-0.462565
0.11279
-9.48675
-16.6815
-17.4129
-18.5655
-20.4191
-23.2572
-27.3258
-32.8278
-39.9227
-48.7172
-59.2434
-71.4353
-85.1064
-99.9353
-115.46
-131.09
-146.132
-159.836
-171.449
-180.276
-185.712
-187.217
-184.326
-176.516
-163.179
-143.734
-117.967
-86.7698
-53.1012
-22.6245
-2.8029
0.889829
-9.38648
-24.1521
-24.7734
-25.6772
-27.1256
-29.4549
-32.9854
-37.9846
-44.6593
-53.1463
-63.4928
-75.6354
-89.3827
-104.404
-120.224
-136.235
-151.727
-165.935
-178.097
-187.515
-193.595
-195.866
-193.961
-187.395
-175.442
-157.226
-131.973
-99.773
-62.8358
-26.7768
-0.505731
7.523
-2.94394
-31.4427
-31.999
-32.5416
-33.3375
-34.8307
-37.4686
-41.6174
-47.5465
-55.4281
-65.3184
-77.1555
-90.7395
-105.72
-121.603
-137.761
-153.469
-167.949
-180.436
-190.23
-196.751
-199.542
-198.298
-192.612
-181.746
-164.595
-139.896
-106.897
-66.8052
-24.744
9.25383
23.3782
13.687
-38.6592
-39.216
-39.234
-39.0425
-39.2876
-40.6226
-43.5531
-48.4371
-55.4717
-64.714
-76.0839
-89.356
-104.155
-119.959
-136.122
-151.901
-166.509
-179.174
-189.197
-195.997
-199.119
-198.204
-192.823
-182.363
-165.666
-140.961
-106.7
-62.8841
-13.7014
30.1265
53.1265
46.0748
-46.0733
-46.7047
-45.9302
-44.2781
-42.7541
-42.3256
-43.6812
-47.2503
-53.2494
-61.7162
-72.5325
-85.4313
-99.9978
-115.679
-131.801
-147.605
-162.293
-175.084
-185.271
-192.258
-195.571
-194.797
-189.334
-178.406
-160.799
-134.834
-98.0948
-49.0806
9.41376
66.5621
102.993
102.059
-54.2569
-54.9951
-52.9405
-49.1259
-45.1643
-42.4543
-41.8957
-43.9478
-48.8127
-56.474
-66.7481
-79.3053
-93.6789
-109.275
-125.391
-141.251
-156.043
-168.974
-179.316
-186.439
-189.82
-188.998
-183.144
-171.169
-151.558
-122.121
-80.2507
-23.5312
47.7771
123.653
180.883
192.351
-64.4013
-65.0669
-60.7734
-53.7081
-46.4487
-40.9056
-38.1522
-38.5903
-42.3372
-49.2714
-59.1097
-71.4395
-85.7297
-101.341
-117.54
-133.53
-148.487
-161.599
-172.108
-179.332
-182.664
-181.532
-175.01
-161.402
-138.697
-104.006
-53.7059
15.6049
104.609
206.79
296.253
331.174
-79.1017
-78.7538
-70.2225
-58.1538
-46.4969
-37.5892
-32.4723
-31.3397
-34.1132
-40.5018
-50.0888
-62.3611
-76.7167
-92.4678
-108.852
-125.054
-140.234
-153.559
-164.234
-171.507
-174.656
-172.932
-165.391
-149.52
-122.591
-80.7749
-19.0872
67.7319
182.739
321.008
459.426
536.959
-104.324
-99.4056
-82.2852
-62.3517
-44.962
-32.2892
-24.8371
-22.3582
-24.4412
-30.5589
-40.1337
-52.5454
-67.1214
-83.1296
-99.782
-116.248
-131.674
-145.208
-156.011
-163.251
-166.073
-163.514
-154.38
-135.615
-103.355
-52.6432
23.2026
131.989
280.689
470.041
679.627
833.012
-154.313
-131.951
-96.8145
-64.7607
-40.4867
-24.0727
-14.6939
-11.405
-13.2967
-19.5549
-29.4358
-42.2214
-57.1822
-73.5553
-90.5377
-107.292
-122.958
-136.665
-147.532
-154.646
-156.999
-153.38
-142.196
-119.881
-81.4798
-20.8124
70.703
204.146
392.637
648.533
966.587
1247
-261.838
-175.775
-105.884
-58.1861
-27.6258
-9.25353
0.226651
2.89839
0.152731
-6.99134
-17.7016
-31.2235
-46.8159
-63.7181
-81.1358
-98.2419
-114.182
-128.078
-139.015
-146.002
-147.886
-143.198
-129.9
-103.867
-59.6537
9.9937
115.367
271.065
498.696
833.088
1325.56
1917.96
-528.985
-189.36
-69.3622
-19.053
5.81104
18.4098
23.3107
22.5008
17.0992
7.9004
-4.42251
-19.2257
-35.8483
-53.5894
-71.7016
-89.3935
-105.835
-120.155
-131.429
-138.623
-140.495
-135.403
-120.919
-92.9443
-45.9207
27.8688
139.514
305.754
555.17
948.653
1650.87
3092.57
VECTORS velocity double
8.33403e-05 -8.33404e-05 0
0.000170286 -3.60531e-06 0
3.652e-05 0.000137371 0
-0.000367415 0.000266564 0
-0.000999961 0.000365982 0
-0.00180467 0.000438725 0
-0.00273572 0.000492328 0
-0.00376009 0.000532038 0
-0.00485128 0.000559156 0
-0.00598205 0.000571616 0
-0.00711895 0.000565287 0
-0.00821953 0.000535287 0
-0.00923193 0.000477112 0
-0.0100966 0.000387585 0
-0.0107499 0.000265694 0
-0.0111289 0.000113308 0
-0.0111779 -6.43391e-05 0
-0.0108549 -0.000258658 0
-0.0101407 -0.00045555 0
-0.00904797 -0.000637149 0
-0.00762714 -0.000783679 0
-0.00596737 -0.00087609 0
-0.00419197 -0.000899312 0
-0.00244702 -0.000845645 0
-0.00088389 -0.000717481 0
0.00036208 -0.00052849 0
0.00119347 -0.000302896 0
0.00156763 -7.12688e-05 0
0.00150772 0.000131176 0
0.00111107 0.000265478 0
0.000561044 0.000284544 0
0.000138249 0.000138249 0
6.38279e-08 -0.000166745 0
-0.000248241 0.000241158 0
-0.00105567 0.000833801 0
-0.00245853 0.00137693 0
-0.00437585 0.00180549 0
-0.00669739 0.00212547 0
-0.00932083 0.00236007 0
-0.0121578 0.00252568 0
-0.0151262 0.00262507 0
-0.0181389 0.00264915 0
-0.0210961 0.00258184 0
-0.0238819 0.00240511 0
-0.0263658 0.0021036 0
-0.0284082 0.00166822 0
-0.0298691 0.00109928 0
-0.0306194 0.000408928 0
-0.030553 -0.000377369 0
-0.0296019 -0.0012197 0
-0.0277502 -0.00206042 0
-0.0250462 -0.00282894 0
-0.0216105 -0.00344843 0
-0.0176365 -0.00384517 0
-0.013382 -0.00396009 0
-0.00915066 -0.00376116 0
-0.0052616 -0.00325415 0
-0.00201061 -0.00248878 0
0.000373252 -0.00155785 0
0.00177045 -0.00058767 0
0.00220233 0.000275604 0
0.00184715 0.000872879 0
0.00104363 0.00103069 0
0.000291018 0.000567517 0
-0.000181203 1.43941e-05 0
-0.00100617 0.00113329 0
-0.00274613 0.00248905 0
-0.00532648 0.00370489 0
-0.0086033 0.00467167 0
-0.0124217 0.00539917 0
-0.0166384 0.00592656 0
-0.0211219 0.00627972 0
-0.0257416 0.00645911 0
-0.0303574 0.00644359 0
-0.0348131 0.00620023 0
-0.0389355 0.00569495 0
-0.0425395 0.00490163 0
-0.0454363 0.00380943 0
-0.0474457 0.00242841 0
-0.0484093 0.000793616 0
-0.0482053 -0.00103242 0
-0.0467635 -0.00295753 0
-0.0440785 -0.00485936 0
-0.0402208 -0.00659162 0
-0.035346 -0.00799624 0
-0.0296968 -0.00892068 0
-0.0235963 -0.00923955 0
-0.0174305 -0.00887882 0
-0.011617 -0.00783904 0
-0.00656004 -0.00621183 0
-0.00259499 -0.00418371 0
6.97722e-05 -0.00202377 0
0.00140482 -5.52253e-05 0
0.00159163 0.00137207 0
0.00102438 0.00190226 0
0.000307201 0.00116574 0
-0.000400744 0.000596341 0
-0.00191515 0.00289072 0
-0.00473275 0.00528918 0
-0.00860556 0.00735793 0
-0.013297 0.00898692 0
-0.0186013 0.0102065 0
-0.0243396 0.0110743 0
-0.0303464 0.0116222 0
-0.0364534 0.0118434 0
-0.0424798 0.0117015 0
-0.0482278 0.011146 0
-0.0534856 0.0101294 0
-0.0580344 0.00861993 0
-0.0616591 0.00661269 0
-0.0641611 0.00413652 0
-0.065371 0.00125906 0
-0.0651624 -0.00191045 0
-0.0634627 -0.00522097 0
-0.0602635 -0.00848018 0
-0.0556328 -0.0114592 0
-0.0497271 -0.0139092 0
-0.0427984 -0.0155857 0
-0.0351934 -0.01628 0
-0.0273421 -0.0158555 0
-0.0197305 -0.0142874 0
-0.0128555 -0.0116954 0
-0.00716108 -0.00835959 0
-0.00296428 -0.00470945 0
-0.000384834 -0.00128403 0
0.000704823 0.00132441 0
0.00069869 0.0025233 0
0.000243814 0.00171675 0
-0.000635109 0.00163219 0
-0.00288569 0.00561985 0
-0.00684295 0.00933491 0
-0.0120538 0.0123959 0
-0.0181706 0.0147573 0
-0.0249309 0.0165007 0
-0.0321234 0.017711 0
-0.0395565 0.0184253 0
-0.047036 0.0186268 0
-0.0543542 0.0182626 0
-0.0612879 0.0172666 0
-0.0676031 0.0155818 0
-0.0730638 0.0131769 0
-0.0774423 0.010059 0
-0.0805311 0.00628097 0
-0.0821533 0.00194679 0
-0.0821734 -0.00278668 0
-0.0805036 -0.00771429 0
-0.0771114 -0.0125783 0
-0.0720358 -0.0170674 0
-0.065405 -0.0208374 0
-0.0574508 -0.0235405 0
-0.0485162 -0.0248648 0
-0.0390534 -0.0245848 0
-0.0296046 -0.0226186 0
-0.0207602 -0.0190837 0
-0.0130904 -0.0143355 0
-0.00705399 -0.0089668 0
-0.00290169 -0.00375844 0
-0.000601603 0.000409075 0
0.000195851 0.00264731 0
0.000141449 0.00210201 0
-0.000872253 0.00313956 0
-0.0038646 0.00935541 0
-0.00896115 0.0146532 0
-0.0154939 0.0188211 0
-0.0229992 0.0219542 0
-0.031158 0.0242229 0
-0.0397307 0.025754 0
-0.0485079 0.0265926 0
-0.0572807 0.0267119 0
-0.0658281 0.0260431 0
-0.0739152 0.0245069 0
-0.081299 0.0220405 0
-0.0877362 0.0186161 0
-0.0929926 0.0142547 0
-0.0968516 0.00903305 0
-0.099123 0.00308838 0
-0.0996504 -0.00338074 0
-0.098315 -0.0101255 0
-0.0950414 -0.0168329 0
-0.0898173 -0.0231125 0
-0.0827195 -0.0285209 0
-0.0739358 -0.0325948 0
-0.0637835 -0.0348973 0
-0.0527182 -0.0350803 0
-0.0413275 -0.0329625 0
-0.0302983 -0.0286134 0
-0.0203479 -0.022426 0
-0.0121174 -0.0151433 0
-0.0060415 -0.00781016 0
-0.00223314 -0.00164765 0
-0.000424225 0.00209767 0
1.91861e-05 0.00226265 0
-0.00110237 0.00511418 0
-0.00480906 0.0140798 0
-0.0109937 0.02121 0
-0.0187794 0.0265828 0
-0.0275925 0.0305109 0
-0.0370624 0.0332949 0
-0.0469279 0.0351202 0
-0.0569699 0.0360457 0
-0.0669751 0.0360368 0
-0.0767202 0.0350105 0
-0.0859695 0.0328759 0
-0.0944793 0.0295651 0
-0.102004 0.0250533 0
-0.108302 0.0193721 0
-0.113144 0.0126166 0
-0.116317 0.00494899 0
-0.11763 -0.00340035 0
-0.116923 -0.0121486 0
-0.114065 -0.0209418 0
-0.108977 -0.0293156 0
-0.101667 -0.0367255 0
-0.0922587 -0.0425819 0
-0.0810205 -0.0463007 0
-0.068388 -0.0473748 0
-0.054975 -0.0454717 0
-0.0415575 -0.0405509 0
-0.029014 -0.0329825 0
-0.0182083 -0.023623 0
-0.00982289 -0.0137918 0
-0.00418367 -0.00511358 0
-0.00115103 0.000722048 0
-0.000119003 0.00216283 0
-0.00131521 0.00753176 0
-0.00567766 0.0197314 0
-0.0128544 0.0289198 0
-0.0217781 0.0355824 0
-0.0317779 0.0403241 0
-0.0424407 0.0436145 0
-0.0534906 0.0457158 0
-0.0647068 0.0467083 0
-0.0758797 0.0465524 0
-0.0867922 0.0451525 0
-0.097215 0.0424061 0
-0.106908 0.038238 0
-0.115625 0.0326218 0
-0.123116 0.0255924 0
-0.129131 0.0172534 0
-0.133427 0.00778133 0
-0.135773 -0.00257283 0
-0.13596 -0.0134972 0
-0.133797 -0.0246145 0
-0.129133 -0.0353947 0
-0.121895 -0.0451944 0
-0.112124 -0.0532924 0
-0.100012 -0.0589396 0
-0.0859457 -0.0614352 0
-0.0705307 -0.0602392 0
-0.0546075 -0.055124 0
-0.0392114 -0.046349 0
-0.02546 -0.0348134 0
-0.014352 -0.0220948 0
-0.00651524 -0.0102865 0
-0.00200801 -0.00164486 0
-0.000277067 0.00176676 0
-0.00149983 0.0103468 0
-0.00642862 0.0262076 0
-0.0144599 0.0376516 0
-0.0243648 0.0456792 0
-0.035392 0.0512543 0
-0.0470958 0.0550511 0
-0.0591921 0.0574255 0
-0.0714646 0.0584872 0
-0.0837134 0.0581953 0
-0.0957335 0.0564421 0
-0.107306 0.0531117 0
-0.118197 0.048117 0
-0.12816 0.0414225 0
-0.136935 0.0330564 0
-0.14425 0.0231197 0
-0.14983 0.0117919 0
-0.153402 -0.000665522 0
-0.154707 -0.0139139 0
-0.153499 -0.0275682 0
-0.149557 -0.0410472 0
-0.142718 -0.0536181 0
-0.132927 -0.0644316 0
-0.120273 -0.0725654 0
-0.105051 -0.0770982 0
-0.087814 -0.077228 0
-0.0694201 -0.0724523 0
-0.051031 -0.0628059 0
-0.0340252 -0.0491137 0
-0.0197797 -0.0331481 0
-0.00933144 -0.0175184 0
-0.00304322 -0.00520846 0
-0.000466748 0.00102295 0
-0.00164514 0.0134918 0
-0.0070211 0.0333673 0
-0.015731 0.047233 0
-0.0264215 0.0566932 0
-0.0382797 0.0631256 0
-0.0508356 0.0674394 0
-0.063802 0.0701 0
-0.0769708 0.0712539 0
-0.0901558 0.0708625 0
-0.103167 0.0688061 0
-0.115799 0.0649521 0
-0.127827 0.0591959 0
-0.139004 0.0514838 0
-0.149062 0.0418277 0
-0.157713 0.0303148 0
-0.164653 0.0171173 0
-0.169571 0.00249887 0
-0.172165 -0.0131802 0
-0.172142 -0.0295319 0
-0.16922 -0.0459477 0
-0.163151 -0.061625 0
-0.153766 -0.0756012 0
-0.141029 -0.0867873 0
-0.125099 -0.094028 0
-0.106419 -0.096215 0
-0.0857958 -0.0924826 0
-0.0644563 -0.0825042 0
-0.0440128 -0.0668646 0
-0.026259 -0.0473964 0
-0.012756 -0.0272213 0
-0.00431882 -0.010231 0
-0.000702994 -0.000146797 0
-0.00174089 0.0168778 0
-0.00741791 0.0410343 0
-0.0165964 0.0574544 0
-0.027842 0.0684079 0
-0.0402986 0.0757256 0
-0.0534788 0.0805755 0
-0.0670947 0.0835462 0
-0.0809473 0.084829 0
-0.0948659 0.0843909 0
-0.108677 0.0820999 0
-0.122191 0.0778039 0
-0.135194 0.0713749 0
-0.147446 0.0627338 0
-0.158677 0.0518669 0
-0.168589 0.038839 0
-0.176862 0.0238058 0
-0.183159 0.00702573 0
-0.187142 -0.0111309 0
-0.188487 -0.0302589 0
-0.186869 -0.0497601 0
-0.18196 -0.0687907 0
-0.173476 -0.0863039 0
-0.161231 -0.101067 0
-0.14521 -0.111698 0
-0.125678 -0.116757 0
-0.103307 -0.114935 0
-0.0792981 -0.1054 0
-0.0554264 -0.088284 0
-0.0338997 -0.0652576 0
-0.0169073 -0.0398554 0
-0.00590126 -0.0170401 0
-0.0010025 -0.00185229 0
-0.00177876 0.0203975 0
-0.007589 0.0490019 0
-0.0169981 0.0680744 0
-0.0285386 0.0805741 0
-0.0413289 0.0888062 0
-0.054868 0.0942143 0
-0.0688669 0.0975222 0
-0.0831351 0.0989739 0
-0.0975163 0.0985457 0
-0.111855 0.0960944 0
-0.125978 0.0914465 0
-0.139688 0.0844463 0
-0.152759 0.0749846 0
-0.164928 0.0630164 0
-0.175904 0.0485777 0
-0.185365 0.0318011 0
-0.192968 0.0129307 0
-0.198355 -0.00766598 0
-0.201188 -0.0295459 0
-0.201117 -0.0521619 0
-0.19775 -0.0746654 0
-0.190694 -0.0959686 0
-0.179603 -0.114739 0
-0.16425 -0.1294 0
-0.14466 -0.138178 0
-0.121275 -0.139271 0
-0.0951518 -0.131197 0
-0.0681154 -0.113395 0
-0.0427286 -0.0870599 0
-0.0218754 -0.0558988 0
-0.00785316 -0.0260251 0
-0.00138223 -0.00423702 0
-0.00175351 0.0239297 0
-0.00751498 0.0570413 0
-0.0168977 0.0788268 0
-0.0284513 0.0929159 0
-0.041285 0.102088 0
-0.054886 0.108072 0
-0.0689611 0.111738 0
-0.0833251 0.11339 0
-0.0978344 0.11302 0
-0.112351 0.110475 0
-0.126722 0.10556 0
-0.140772 0.0980928 0
-0.154294 0.0879307 0
-0.16705 0.0749963 0
-0.178771 0.0592939 0
-0.189153 0.0409287 0
-0.197871 0.0201238 0
-0.204577 -0.00276548 0
-0.208931 -0.0272594 0
-0.210573 -0.0528778 0
-0.209078 -0.0788122 0
-0.203964 -0.103991 0
-0.194724 -0.127048 0
-0.180899 -0.146268 0
-0.162213 -0.159585 0
-0.138782 -0.16468 0
-0.111387 -0.159307 0
-0.0817471 -0.141961 0
-0.0526585 -0.112969 0
-0.027703 -0.0757984 0
-0.0102272 -0.0376235 0
-0.00185874 -0.00747798 0
-0.00166392 0.0273472 0
-0.00719053 0.064912 0
-0.0162826 0.089431 0
-0.0275568 0.10514 0
-0.0401283 0.11527 0
-0.0534727 0.121836 0
-0.0672879 0.125864 0
-0.0813896 0.12773 0
-0.0956442 0.127444 0
-0.10993 0.124853 0
-0.124118 0.119741 0
-0.138058 0.111902 0
-0.151576 0.101162 0
-0.16447 0.0874153 0
-0.17651 0.0706347 0
-0.187437 0.0508976 0
-0.196967 0.0284021 0
-0.204788 0.00348434 0
-0.210576 -0.0233671 0
-0.213986 -0.0517182 0
-0.214599 -0.0808539 0
-0.211874 -0.109789 0
-0.205159 -0.137204 0
-0.193754 -0.161341 0
-0.177043 -0.17991 0
-0.154727 -0.190101 0
-0.127171 -0.188837 0
-0.0958047 -0.173437 0
-0.0634718 -0.142915 0
-0.0343709 -0.0999089 0
-0.0130606 -0.0522991 0
-0.00244735 -0.0117841 0
-0.00151354 0.0305246 0
-0.00662688 0.0723745 0
-0.0151706 0.0996043 0
-0.0258756 0.116945 0
-0.0378777 0.128038 0
-0.0506399 0.135175 0
-0.0638462 0.139547 0
-0.0773078 0.14161 0
-0.0908978 0.141408 0
-0.104512 0.138788 0
-0.118044 0.133526 0
-0.131377 0.125391 0
-0.144378 0.114192 0
-0.156893 0.0997944 0
-0.168747 0.0821497 0
-0.179748 0.0613103 0
-0.189677 0.0374482 0
-0.198288 0.010871 0
-0.205293 -0.0179612 0
-0.210395 -0.0486124 0
-0.213221 -0.0805206 0
-0.213209 -0.11286 0
-0.209599 -0.144458 0
-0.201463 -0.173628 0
-0.187827 -0.197971 0
-0.16791 -0.214272 0
-0.141523 -0.218609 0
-0.10961 -0.206945 0
-0.0748198 -0.17653 0
-0.0417899 -0.128424 0
-0.0163715 -0.0705124 0
-0.00316198 -0.0173934 0
-0.00131095 0.0333491 0
-0.00585316 0.0792056 0
-0.0136131 0.109077 0
-0.0234772 0.128042 0
-0.0346159 0.140082 0
-0.0464797 0.147757 0
-0.0587335 0.152426 0
-0.0711794 0.154639 0
-0.0836948 0.154485 0
-0.0961908 0.151822 0
-0.108589 0.146423 0
-0.120809 0.138048 0
-0.132763 0.12649 0
-0.144354 0.111601 0
-0.155475 0.0933189 0
-0.166013 0.0716798 0
-0.175839 0.046834 0
-0.184797 0.0190545 0
-0.192684 -0.0112535 0
-0.199273 -0.0436288 0
-0.204259 -0.0776923 0
-0.207113 -0.112846 0
-0.207021 -0.148174 0
-0.202873 -0.182196 0
-0.193345 -0.212567 0
-0.177136 -0.235803 0
-0.153393 -0.247207 0
-0.122369 -0.241285 0
-0.0862383 -0.213111 0
-0.0497999 -0.161312 0
-0.0201575 -0.0926859 0
-0.00401577 -0.0245711 0
-0.00106963 0.0357297 0
-0.00491641 0.085214 0
-0.0116959 0.117608 0
-0.0204816 0.13816 0
-0.0304921 0.151112 0
-0.0411667 0.159265 0
-0.0521483 0.164153 0
-0.0632265 0.166436 0
-0.0742813 0.166258 0
-0.0852409 0.163504 0
-0.0960559 0.157954 0
-0.106685 0.149367 0
-0.117092 0.137531 0
-0.127238 0.122297 0
-0.137092 0.103599 0
-0.146626 0.0814712 0
-0.15581 0.0560529 0
-0.164606 0.0275894 0
-0.172936 -0.00357223 0
-0.180667 -0.0369891 0
-0.187579 -0.0724346 0
-0.193235 -0.109593 0
-0.196843 -0.147911 0
-0.197176 -0.186274 0
-0.192614 -0.22258 0
-0.181334 -0.253279 0
-0.161748 -0.273059 0
-0.133231 -0.274974 0
-0.0971773 -0.251605 0
-0.0581779 -0.198255 0
-0.0243988 -0.119164 0
-0.00502339 -0.0336103 0
-0.000807373 0.0376067 0
-0.00388048 0.0902569 0
-0.00953804 0.125002 0
-0.0170586 0.147073 0
-0.0257198 0.160872 0
-0.034954 0.169414 0
-0.0443821 0.174414 0
-0.0537811 0.176653 0
-0.0630341 0.176349 0
-0.0720888 0.173427 0
-0.080928 0.167685 0
-0.0895541 0.158891 0
-0.0979822 0.14684 0
-0.106238 0.13139 0
-0.114362 0.112484 0
-0.122411 0.0901681 0
-0.130458 0.0645874 0
-0.138584 0.0359763 0
-0.14685 0.00463622 0
-0.155245 -0.0290707 0
-0.163671 -0.0650156 0
-0.171833 -0.103194 0
-0.179034 -0.143502 0
-0.184035 -0.185349 0
-0.185008 -0.227093 0
-0.17967 -0.265384 0
-0.165667 -0.294544 0
-0.141353 -0.306321 0
-0.107037 -0.290628 0
-0.0666535 -0.238616 0
-0.0290656 -0.15017 0
-0.00620553 -0.0448392 0
-0.000545608 0.0389597 0
-0.00282423 0.0942556 0
-0.00729005 0.131127 0
-0.0134242 0.154603 0
-0.0205714 0.16915 0
-0.0281638 0.177962 0
-0.0358054 0.182935 0
-0.043264 0.184989 0
-0.0504307 0.184433 0
-0.0572767 0.181244 0
-0.0638224 0.175253 0
-0.0701177 0.166245 0
-0.0762334 0.15403 0
-0.0822584 0.138481 0
-0.0883014 0.11956 0
-0.0944959 0.0973354 0
-0.101004 0.0719754 0
-0.108015 0.0437246 0
-0.115719 0.0128574 0
-0.124247 -0.0203687 0
-0.133648 -0.0558907 0
-0.143802 -0.0940027 0
-0.154188 -0.135105 0
-0.163672 -0.179261 0
-0.170362 -0.225517 0
-0.171631 -0.271031 0
-0.164414 -0.310116 0
-0.14596 -0.333515 0
-0.115206 -0.328504 0
-0.0749249 -0.281405 0
-0.0341297 -0.185764 0
-0.00759553 -0.0586403 0
-0.000308784 0.039814 0
-0.00184031 0.0972114 0
-0.00513188 0.135928 0
-0.0098385 0.160642 0
-0.0153723 0.175792 0
-0.0211761 0.184717 0
-0.0268481 0.189494 0
-0.0321575 0.191198 0
-0.0370114 0.190244 0
-0.0414129 0.18668 0
-0.0454261 0.180376 0
-0.0491539 0.171145 0
-0.052726 0.158818 0
-0.0562945 0.143287 0
-0.0600335 0.124537 0
-0.0641429 0.102663 0
-0.0688534 0.0778668 0
-0.0744307 0.0504211 0
-0.0811668 0.0206008 0
-0.0893368 -0.0114142 0
-0.0991368 -0.045644 0
-0.110618 -0.0826148 0
-0.123501 -0.123223 0
-0.13689 -0.16827 0
-0.149011 -0.217696 0
-0.157089 -0.269505 0
-0.157495 -0.318452 0
-0.146379 -0.354749 0
-0.121079 -0.363325 0
-0.082669 -0.325276 0
-0.0395738 -0.225784 0
-0.00924618 -0.075482 0
-0.000124579 0.0402474 0
-0.00103587 0.0992208 0
-0.00327393 0.139449 0
-0.00660378 0.165158 0
-0.0104951 0.180701 0
-0.0144163 0.189533 0
-0.0179805 0.193914 0
-0.020976 0.195083 0
-0.0233412 0.193579 0
-0.0251222 0.189529 0
-0.0264349 0.182853 0
-0.0274402 0.173401 0
-0.0283304 0.161025 0
-0.0293221 0.14564 0
-0.0306532 0.127253 0
-0.0325825 0.105985 0
-0.0353936 0.0820663 0
-0.039399 0.0558043 0
-0.0449443 0.0274991 0
-0.0523954 -0.00269129 0
-0.0620641 -0.0348982 0
-0.0741548 -0.0697889 0
-0.0886498 -0.108671 0
-0.105003 -0.153081 0
-0.121772 -0.203995 0
-0.136306 -0.260594 0
-0.144667 -0.318595 0
-0.142045 -0.368344 0
-0.124051 -0.393024 0
-0.0895295 -0.368507 0
-0.0453886 -0.269788 0
-0.0112328 -0.095961 0
-2.58481e-05 0.0403978 0
-0.000538245 0.100494 0
-0.00196383 0.141839 0
-0.0040686 0.168202 0
-0.00635676 0.183836 0
-0.0083441 0.192306 0
-0.00969165 0.196052 0
-0.0102363 0.196485 0
-0.00996985 0.194275 0
-0.00899728 0.18964 0
-0.00749601 0.182553 0
-0.00568963 0.1729 0
-0.00383531 0.160562 0
-0.00221533 0.145475 0
-0.00113028 0.127664 0
-0.000895372 0.107268 0
-0.00183756 0.0845362 0
-0.00429435 0.0597965 0
-0.00861669 0.0333744 0
-0.0151751 0.00544299 0
-0.0243296 -0.0242094 0
-0.0363843 -0.0563322 0
-0.0515417 -0.0924751 0
-0.069666 -0.1348 0
-0.0898437 -0.185329 0
-0.109875 -0.244695 0
-0.1259 -0.310108 0
-0.13246 -0.372894 0
-0.12347 -0.415458 0
-0.0950675 -0.408997 0
-0.0515446 -0.316962 0
-0.0136468 -0.120841 0
-5.6106e-05 0.0404798 0
-0.000509782 0.101378 0
-0.00150358 0.143374 0
-0.0026379 0.169906 0
-0.00341734 0.1852 0
-0.00343994 0.192952 0
-0.00246544 0.195779 0
-0.000422292 0.195259 0
0.00261272 0.192199 0
0.00645552 0.186901 0
0.0108538 0.179393 0
0.0155114 0.169596 0
0.020103 0.157419 0
0.0242838 0.142817 0
0.027696 0.125826 0
0.029977 0.106591 0
0.0307692 0.0853633 0
0.0297303 0.0624651 0
0.0265412 0.0382173 0
0.0209026 0.0127972 0
0.0124995 -0.0140061 0
0.000999016 -0.0429802 0
-0.0139495 -0.0757212 0
-0.0325717 -0.114807 0
-0.0545948 -0.163121 0
-0.0785996 -0.222867 0
-0.101299 -0.293211 0
-0.117109 -0.367421 0
-0.11853 -0.428499 0
-0.0986579 -0.444231 0
-0.0579206 -0.365989 0
-0.0165723 -0.15106 0
-0.000281685 0.0408176 0
-0.00117856 0.102391 0
-0.00228177 0.144458 0
-0.00279037 0.170465 0
-0.00217674 0.184807 0
-0.000181298 0.191373 0
0.00326469 0.192939 0
0.00807267 0.191249 0
0.0140294 0.187218 0
0.0208501 0.181219 0
0.0282013 0.173326 0
0.0357178 0.163489 0
0.0430136 0.151639 0
0.0496907 0.137739 0
0.0553466 0.121835 0
0.0595854 0.104062 0
0.062032 0.0846533 0
0.0623483 0.0638977 0
0.0602459 0.0420762 0
0.0554862 0.0193366 0
0.0478488 -0.00450505 0
0.0370958 -0.0302278 0
0.022943 -0.0593723 0
0.00497083 -0.0945615 0
-0.0172362 -0.139137 0
-0.0432767 -0.196806 0
-0.0709593 -0.26889 0
-0.0953337 -0.351558 0
-0.108113 -0.430162 0
-0.0993105 -0.471243 0
-0.0641679 -0.414857 0
-0.0200382 -0.18767 0
-0.000815869 0.0419151 0
-0.00289348 0.104268 0
-0.00482191 0.145613 0
-0.00509426 0.170091 0
-0.00315711 0.18263 0
0.000994126 0.187403 0
0.00713334 0.187323 0
0.0149298 0.18426 0
0.0239954 0.179185 0
0.0339236 0.172503 0
0.0442974 0.164316 0
0.054691 0.154589 0
0.0646731 0.143261 0
0.073811 0.130302 0
0.0816782 0.115749 0
0.0878669 0.0997207 0
0.0920039 0.0824114 0
0.0937689 0.0640583 0
0.0929086 0.0448784 0
0.0892381 0.0249646 0
0.0826153 0.00412711 0
0.0728671 -0.0183588 0
0.0597363 -0.0439578 0
0.0428359 -0.0751035 0
0.021656 -0.115208 0
-0.00436859 -0.16867 0
-0.0347778 -0.238934 0
-0.06617 -0.325747 0
-0.0905732 -0.41879 0
-0.0953993 -0.486592 0
-0.0694821 -0.460568 0
-0.0239312 -0.23164 0
-0.00186216 0.0445932 0
-0.00620681 0.108012 0
-0.00982499 0.147416 0
-0.0101797 0.168916 0
-0.00682311 0.178511 0
-0.000209081 0.180756 0
0.00898446 0.178637 0
0.0200959 0.174038 0
0.0325275 0.167909 0
0.0457434 0.160635 0
0.059252 0.152302 0
0.0725858 0.142875 0
0.0852911 0.132288 0
0.0969265 0.120502 0
0.107068 0.10754 0
0.11532 0.0934884 0
0.121334 0.0784931 0
0.12482 0.0627258 0
0.125562 0.0463286 0
0.123419 0.0293281 0
0.118295 0.01151 0
0.110077 -0.00777465 0
0.098521 -0.0298555 0
0.0832165 -0.057001 0
0.0635508 -0.0924644 0
0.0386769 -0.140515 0
0.00782954 -0.205833 0
-0.0281808 -0.291446 0
-0.0634985 -0.393371 0
-0.0842869 -0.486397 0
-0.0722365 -0.49873 0
-0.0278468 -0.283418 0
-0.00377956 0.0502349 0
-0.0119515 0.114887 0
-0.0181026 0.15031 0
-0.0185088 0.166782 0
-0.0132332 0.172013 0
-0.00351767 0.170925 0
0.00933557 0.166421 0
0.0242621 0.160216 0
0.0404402 0.153122 0
0.0572231 0.145423 0
0.0740725 0.137155 0
0.0905102 0.128251 0
0.106091 0.118625 0
0.120397 0.108224 0
0.133032 0.097041 0
0.143642 0.0851253 0
0.151917 0.0725676 0
0.157611 0.0594716 0
0.160546 0.0459055 0
0.160608 0.0318322 0
0.157725 0.0170122 0
0.151806 0.000861434 0
0.14261 -0.0177399 0
0.129678 -0.0408802 0
0.112261 -0.0715024 0
0.089202 -0.113544 0
0.0590408 -0.171795 0
0.0207734 -0.251206 0
-0.023495 -0.354025 0
-0.0618431 -0.466606 0
-0.0693951 -0.523019 0
-0.0308246 -0.342089 0
-0.00713704 0.0611515 0
-0.0211346 0.12614 0
-0.0300357 0.154109 0
-0.0294717 0.162825 0
-0.0209072 0.162129 0
-0.0068207 0.157006 0
0.0107281 0.149938 0
0.0302698 0.142231 0
0.0508026 0.134396 0
0.071628 0.126541 0
0.0922133 0.118603 0
0.112113 0.110466 0
0.130929 0.102013 0
0.148294 0.093165 0
0.163874 0.0838839 0
0.17737 0.0741773 0
0.188527 0.064083 0
0.197147 0.0536432 0
0.203081 0.0428649 0
0.206227 0.0316641 0
0.2065 0.0197903 0
0.20378 0.00672306 0
0.197842 -0.0084683 0
0.188176 -0.0275532 0
0.173824 -0.0530605 0
0.153288 -0.0883909 0
0.124462 -0.137961 0
0.0849972 -0.207308 0
0.0339622 -0.302619 0
-0.0219015 -0.4238 0
-0.055551 -0.524624 0
-0.0308461 -0.40376 0
-0.012545 0.0808335 0
-0.0338946 0.141805 0
-0.0433155 0.156766 0
-0.0383341 0.154623 0
-0.0233409 0.146774 0
-0.00244159 0.137376 0
0.0215963 0.127982 0
0.0470634 0.119178 0
0.072948 0.111031 0
0.0986143 0.103414 0
0.123614 0.0961452 0
0.147591 0.0890475 0
0.170235 0.0819724 0
0.191263 0.0748119 0
0.210419 0.0675005 0
0.227476 0.0600088 0
0.242239 0.0523312 0
0.25455 0.044464 0
0.264286 0.0363741 0
0.271339 0.0279561 0
0.27559 0.018974 0
0.276868 0.00898155 0
0.274877 -0.00279776 0
0.269024 -0.0177041 0
0.258181 -0.0377149 0
0.240492 -0.065511 0
0.213248 -0.104772 0
0.172983 -0.160768 0
0.116367 -0.241508 0
0.0443096 -0.35699 0
-0.0213045 -0.49217 0
-0.0238085 -0.458414 0
-0.0191499 0.112528 0