# vtk DataFile Version 2.0
Lid-driven cavity
ASCII
DATASET STRUCTURED_POINTS
DIMENSIONS 32 32 1
ORIGIN 0.015625 0.015625 0
SPACING 0.03125 0.03125 1
POINT_DATA 1024
SCALARS pressure double 1
LOOKUP_TABLE default
49.4829
49.2716
48.8928
48.4652
48.0616
47.7192
47.4566
47.2874
47.2268
47.2936
47.5089
47.8928
48.4598
49.2146
50.1479
51.2323
52.4214
53.6511
54.8376
55.8859
56.7014
57.205
57.3466
57.1173
56.5547
55.7398
54.7847
53.8175
52.9656
52.3388
52.0152
52.0034
49.6942
49.4735
49.1563
48.8117
48.4851
48.2029
47.9815
47.8346
47.7776
47.8286
48.0075
48.3331
48.8196
49.4728
50.2856
51.2352
52.2807
53.3667
54.4173
55.3461
56.0673
56.5091
56.6278
56.418
55.9173
55.2019
54.3746
53.5453
52.8193
52.2823
51.9954
51.9915
50.0874
49.7716
49.4426
49.1275
48.842
48.5949
48.3932
48.2466
48.169
48.1786
48.2965
48.5438
48.9381
49.4897
50.1974
51.0446
51.9965
53.0022
53.9886
54.8703
55.5613
55.9879
56.1043
55.9035
55.4226
54.7378
53.9504
53.1677
52.4833
51.9722
51.6878
51.6723
50.529
50.0767
49.6946
49.3721
49.0956
48.8543
48.6437
48.4674
48.3378
48.274
48.3003
48.4428
48.7258
49.1675
49.775
50.5399
51.4341
52.4076
53.3878
54.2861
55.0095
55.4755
55.6288
55.4547
54.9858
54.2984
53.4972
52.6933
51.9832
51.4377
51.1078
51.0334
50.8926
50.2884
49.8328
49.4778
49.1818
48.9145
48.6601
48.4167
48.1955
48.0179
47.9134
47.9154
48.0578
48.3691
48.8673
49.5544
50.4108
51.3869
52.4106
53.3877
54.2144
54.7926
55.0493
54.9533
54.5253
53.8374
52.9982
52.1285
51.3359
50.6994
50.2729
50.0959
51.0558
50.2985
49.7608
49.3559
49.0138
48.6866
48.3485
47.9935
47.6327
47.2913
47.0057
46.819
46.7764
46.9197
47.2805
47.8736
48.6919
49.6901
50.799
51.9196
52.9338
53.7219
54.1834
54.2583
53.9434
53.2969
52.4271
51.4677
50.5472
49.7661
49.1923
48.8739
50.8965
49.9931
49.371
48.9018
48.4878
48.0646
47.5983
47.08
46.5223
45.9557
45.4245
44.9833
44.6913
44.6059
44.7755
45.232
45.9842
47.0025
48.2265
49.5548
50.8547
51.9786
52.7875
53.1769
53.1013
52.5882
51.7354
50.6891
49.6083
48.6312
47.858
47.36
50.2935
49.2562
48.55
48.0031
47.4901
46.9319
46.2876
45.5469
44.7247
43.8573
42.9984
42.2153
41.5834
41.179
41.0715
41.3146
41.9386
42.9436
44.2909
45.8831
47.5746
49.1861
50.5285
51.4341
51.7907
51.5696
50.8379
49.7464
48.4931
47.2747
46.249
45.525
49.1304
47.9757
47.1864
46.547
45.9057
45.1696
44.292
43.2614
42.0954
40.836
39.5469
38.3093
37.2169
36.3687
35.8604
35.7737
36.1664
37.0816
38.5259
40.4161
42.5999
44.8662
46.9665
48.6505
49.7094
50.0228
49.5939
48.5584
47.1544
45.6604
44.3236
43.3192
47.3027
46.0505
45.1786
44.43
43.628
42.6673
41.4953
40.0992
38.4983
36.74
34.8974
33.0667
31.3622
29.9097
28.837
28.2616
28.2769
28.9732
30.4391
32.6212
35.3725
38.4558
41.5601
44.3355
46.4456
47.6339
47.7909
46.9976
45.5197
43.7376
42.0307
40.6793
44.7261
43.3993
42.4449
41.5683
40.5707
39.3351
37.8033
35.9596
33.8235
31.4465
28.9103
26.3262
23.8312
21.5818
19.7447
18.4824
17.9366
18.2281
19.5791
21.9879
25.331
29.359
33.7043
37.9097
41.4841
43.9866
45.1304
44.8785
43.4862
41.4436
39.3123
37.5343
41.3453
39.9695
38.9323
37.9079
36.6788
35.1176
33.1591
30.7837
28.0088
24.8876
21.5092
17.9996
14.5195
11.26
8.43225
6.25231
4.92059
4.59761
5.62694
8.12357
12.0069
17.0374
22.809
28.7643
34.2433
38.5772
41.2283
41.9514
40.917
38.7056
36.1107
33.8146
37.1416
35.7441
34.6246
33.434
31.94
30.0056
27.5586
24.5729
21.0616
17.077
12.7133
8.11
3.45236
-1.03216
-5.08331
-8.42483
-10.7892
-11.9504
-11.5039
-9.1331
-4.85394
1.13279
8.41486
16.3613
24.1515
30.863
35.636
37.906
37.641
35.4464
32.3797
29.4658
32.138
30.7474
29.5485
28.1777
26.3923
24.0474
21.0626
17.4037
13.077
8.13095
2.66256
-3.17703
-9.17916
-15.0793
-20.5657
-25.2972
-28.9314
-31.1629
-31.576
-29.6034
-25.1678
-18.3975
-9.6672
0.366926
10.7621
20.3483
27.8934
32.3963
33.4627
31.5932
28.0988
24.4648
26.4004
25.0456
23.7745
22.2181
20.128
17.3525
13.8032
9.43599
4.24771
-1.71932
-8.36823
-15.5386
-23.0004
-30.4535
-37.535
-43.8381
-48.9406
-52.4456
-53.9649
-52.693
-48.4179
-41.1652
-31.223
-19.2061
-6.1081
6.7033
17.6154
25.0914
28.1875
27.0952
23.2945
18.8423
20.0344
18.7437
17.4139
15.6796
13.2909
10.091
5.98288
0.911416
-5.13794
-12.1315
-19.975
-28.5016
-37.4628
-46.5259
-55.2809
-63.2583
-69.9599
-74.9014
-77.6633
-77.3843
-73.6262
-66.2941
-55.5462
-41.8812
-26.2442
-10.1014
4.60632
15.7563
21.6684
21.9531
18.0688
12.714
13.1776
11.977
10.6102
8.72333
6.0684
2.48417
-2.13559
-7.85813
-14.711
-22.6711
-31.6492
-41.4745
-51.8833
-62.515
-72.9175
-82.5663
-90.896
-97.3449
-101.413
-102.329
-99.4208
-92.4563
-81.4348
-66.669
-48.9417
-29.6758
-11.0168
4.3542
13.8765
16.2643
12.6398
6.32087
5.9872
4.89857
3.52609
1.53383
-1.32294
-5.21076
-10.2466
-16.5118
-24.0483
-32.8454
-42.8204
-53.801
-65.5115
-77.5675
-89.4817
-100.684
-110.552
-118.461
-123.834
-126.014
-124.197
-118.015
-107.297
-92.1201
-72.9982
-51.1449
-28.7217
-8.84321
4.99147
10.2879
7.39655
0.0858552
-1.37526
-2.33665
-3.67306
-5.69804
-8.65479
-12.7195
-18.024
-24.6665
-32.706
-42.1452
-52.9095
-64.8262
-77.6101
-90.8572
-104.052
-116.586
-127.798
-137.014
-143.602
-146.981
-146.355
-141.262
-131.365
-116.494
-96.8146
-73.1719
-47.513
-23.1637
-4.49756
4.53209
2.97717
-5.30483
-8.7612
-9.58953
-10.8371
-12.7928
-15.7055
-19.7707
-25.1437
-31.9454
-40.2547
-50.0892
-61.3823
-73.9618
-87.5343
-101.68
-115.858
-129.436
-141.719
-152.008
-159.642
-164.046
-164.564
-160.697
-151.982
-138.02
-118.604
-94.0868
-65.9674
-37.4876
-13.6964
-0.137821
0.378912
-8.77984
-16.0528
-16.7551
-17.8487
-19.5992
-22.276
-26.1135
-31.3049
-38.0032
-46.3112
-56.2622
-67.7965
-80.7411
-94.7949
-109.523
-124.369
-138.675
-151.728
-162.813
-171.262
-176.494
-177.987
-175.286
-167.886
-155.2
-136.673
-112.108
-82.3626
-50.2697
-21.2357
-2.37329
1.11347
-8.69944
-23.1814
-23.781
-24.6397
-26.0067
-28.2017
-31.5294
-36.2447
-42.5452
-50.5627
-60.3449
-71.8351
-84.8554
-99.0965
-114.111
-129.326
-144.07
-157.614
-169.235
-178.262
-184.123
-186.361
-184.614
-178.412
-167.051
-149.694
-125.606
-94.8802
-59.6374
-25.2468
-0.211557
7.41423
-2.58982
-30.1484
-30.6883
-31.2054
-31.9541
-33.3562
-35.8374
-39.7463
-45.3397
-52.7834
-62.1334
-73.3345
-86.2013
-100.406
-115.484
-130.843
-145.798
-159.61
-171.549
-180.947
-187.242
-189.989
-188.889
-183.541
-173.231
-156.897
-133.334
-101.831
-63.55
-23.3982
9.0381
22.4901
13.2174
-37.056
-37.5985
-37.6185
-37.4303
-37.648
-38.8925
-41.6447
-46.2456
-52.8844
-61.6184
-72.3753
-84.9457
-98.9779
-113.982
-129.348
-144.373
-158.311
-170.425
-180.047
-186.617
-189.693
-188.92
-183.88
-173.977
-158.093
-134.534
-101.823
-59.9713
-12.9925
28.8581
50.7987
44.0382
-44.1647
-44.7802
-44.0479
-42.4724
-41.0097
-40.5787
-41.8341
-45.1847
-50.8383
-58.8334
-69.0623
-81.2758
-95.0855
-109.971
-125.296
-140.345
-154.358
-166.594
-176.375
-183.127
-186.392
-185.764
-180.661
-170.333
-153.607
-128.868
-93.8031
-46.9862
8.90134
63.4991
98.2853
97.362
-52.0219
-52.7407
-50.7911
-47.1595
-43.3793
-40.7787
-40.2131
-42.1196
-46.6921
-53.9181
-63.6276
-75.5126
-89.1349
-103.936
-119.253
-134.351
-148.46
-160.826
-170.753
-177.635
-180.967
-180.3
-174.835
-163.525
-144.912
-116.89
-76.9579
-22.7979
45.3286
117.831
172.506
183.427
-61.7673
-62.4173
-58.3356
-51.6098
-44.6911
-39.3938
-36.7376
-37.1054
-40.6101
-47.1396
-56.4293
-68.0925
-81.6301
-96.4397
-111.83
-127.047
-141.308
-153.842
-163.923
-170.899
-174.183
-173.222
-167.127
-154.273
-132.73
-99.7221
-51.7764
14.3703
99.3824
197.018
282.503
315.834
-75.8806
-75.5625
-67.4402
-55.9465
-44.838
-36.3343
-31.424
-30.2917
-32.8641
-38.868
-47.912
-59.514
-73.1075
-88.0444
-103.605
-119.017
-133.484
-146.215
-156.449
-163.466
-166.573
-165.046
-157.981
-142.977
-117.419
-77.6362
-18.85
63.9804
173.793
305.891
438.159
512.214
-100.059
-95.3739
-79.0544
-60.058
-43.4814
-31.3853
-24.2452
-21.8243
-23.7323
-29.4713
-38.4969
-50.2251
-64.0223
-79.1981
-95.0081
-110.666
-125.362
-138.285
-148.634
-155.615
-158.405
-156.08
-147.492
-129.733
-99.0988
-50.8399
21.4409
125.219
267.179
448.045
648.316
794.865
-147.899
-126.548
-93.0235
-62.456
-39.3074
-23.6395
-14.6573
-11.4582
-13.1778
-19.045
-28.3572
-40.4369
-54.5965
-70.1158
-86.2359
-102.164
-117.083
-130.166
-140.572
-147.426
-149.763
-146.423
-135.878
-114.731
-78.2382
-20.4812
66.7521
194.062
374.004
618.409
922.282
1190.26
-250.688
-168.47
-101.745
-56.2369
-27.0869
-9.54906
-0.468898
2.14274
-0.390213
-7.10119
-17.2032
-29.9841
-44.7449
-60.7673
-77.3007
-93.5618
-108.74
-121.999
-132.466
-139.193
-141.078
-136.714
-124.149
-99.4506
-57.4043
8.93131
109.402
257.966
475.289
794.663
1265.14
1831.14
-505.972
-181.461
-66.8595
-18.8609
4.84241
16.8602
21.5618
20.8443
15.7717
7.09605
-4.5478
-18.5535
-34.2985
-51.1218
-68.3175
-85.1361
-100.79
-114.451
-125.236
-132.157
-134.026
-129.272
-115.574
-89.0154
-44.2783
26.0205
132.488
291.13
529.269
905.1
1575.96
2953.42
VECTORS velocity double
8.33357e-05 -8.33357e-05 0
0.00017027 -3.59905e-06 0
3.64947e-05 0.000137375 0
-0.000367444 0.000266564 0
-0.000999985 0.000365977 0
-0.00180468 0.000438717 0
-0.00273571 0.000492316 0
-0.00376005 0.000532024 0
-0.00485121 0.000559139 0
-0.00598195 0.000571597 0
-0.00711882 0.000565268 0
-0.00821935 0.000535268 0
-0.00923171 0.000477094 0
-0.0100964 0.00038757 0
-0.0107496 0.000265682 0
-0.0111286 0.000113301 0
-0.0111776 -6.434e-05 0
-0.0108546 -0.000258652 0
-0.0101404 -0.000455538 0
-0.00904772 -0.00063713 0
-0.00762694 -0.000783655 0
-0.00596722 -0.000876063 0
-0.00419187 -0.000899284 0
-0.00244697 -0.00084562 0
-0.000883891 -0.00071746 0
0.000362044 -0.000528475 0
0.00119341 -0.000302889 0
0.00156757 -7.12695e-05 0
0.00150766 0.00013117 0
0.00111103 0.000265468 0
0.000561025 0.000284534 0
0.000138245 0.000138245 0
5.76252e-08 -0.000166729 0
-0.000248258 0.000241175 0
-0.00105569 0.000833806 0
-0.00245853 0.00137692 0
-0.00437583 0.00180546 0
-0.00669732 0.00212542 0
-0.00932069 0.00236001 0
-0.0121576 0.00252561 0
-0.0151259 0.00262498 0
-0.0181385 0.00264907 0
-0.0210956 0.00258175 0
-0.0238813 0.00240503 0
-0.0263651 0.00210352 0
-0.0284074 0.00166815 0
-0.0298683 0.00109924 0
-0.0306185 0.000408906 0
-0.0305521 -0.000377365 0
-0.0296011 -0.00121967 0
-0.0277494 -0.00206036 0
-0.0250455 -0.00282885 0
-0.0216099 -0.00344833 0
-0.017636 -0.00384506 0
-0.0133816 -0.00395997 0
-0.00915044 -0.00376105 0
-0.00526149 -0.00325406 0
-0.0020106 -0.00248871 0
0.000373199 -0.00155782 0
0.00177036 -0.000587663 0
0.00220224 0.000275585 0
0.00184708 0.000872844 0
0.0010436 0.00103065 0
0.000291008 0.000567498 0
-0.000181205 1.44178e-05 0
-0.00100617 0.00113331 0
-0.00274611 0.00248903 0
-0.00532641 0.00370484 0
-0.00860316 0.00467158 0
-0.0124214 0.00539905 0
-0.0166381 0.0059264 0
-0.0211214 0.00627953 0
-0.025741 0.00645891 0
-0.0303567 0.00644338 0
-0.0348122 0.00620002 0
-0.0389345 0.00569475 0
-0.0425383 0.00490146 0
-0.045435 0.0038093 0
-0.0474444 0.00242832 0
-0.048408 0.000793578 0
-0.048204 -0.00103239 0
-0.0467622 -0.00295744 0
-0.0440772 -0.00485922 0
-0.0402197 -0.00659142 0
-0.0353451 -0.007996 0
-0.029696 -0.00892042 0
-0.0235956 -0.00923928 0
-0.01743 -0.00887856 0
-0.0116167 -0.00783881 0
-0.00655989 -0.00621166 0
-0.00259495 -0.00418361 0
6.97391e-05 -0.00202373 0
0.00140475 -5.52441e-05 0
0.00159157 0.00137201 0
0.00102434 0.00190219 0
0.000307191 0.0011657 0
-0.000400738 0.000596361 0
-0.00191511 0.00289071 0
-0.00473265 0.00528911 0
-0.00860538 0.0073578 0
-0.0132967 0.00898671 0
-0.0186008 0.0102063 0
-0.024339 0.011074 0
-0.0303456 0.0116218 0
-0.0364524 0.011843 0
-0.0424786 0.0117011 0
-0.0482265 0.0111457 0
-0.0534841 0.010129 0
-0.0580327 0.00861965 0
-0.0616574 0.00661248 0
-0.0641593 0.00413638 0
-0.0653692 0.00125901 0
-0.0651606 -0.00191039 0
-0.063461 -0.00522082 0
-0.0602619 -0.00847993 0
-0.0556313 -0.0114588 0
-0.0497258 -0.0139087 0
-0.0427973 -0.0155853 0
-0.0351925 -0.0162795 0
-0.0273414 -0.015855 0
-0.01973 -0.014287 0
-0.0128552 -0.0116951 0
-0.0071609 -0.00835937 0
-0.00296421 -0.00470934 0
-0.000384833 -0.00128402 0
0.000704797 0.00132435 0
0.000698668 0.00252321 0
0.000243807 0.00171669 0
-0.000635094 0.00163219 0
-0.00288561 0.00561977 0
-0.00684277 0.00933474 0
-0.0120535 0.0123956 0
-0.0181701 0.0147569 0
-0.0249302 0.0165002 0
-0.0321226 0.0177105 0
-0.0395554 0.0184247 0
-0.0470347 0.0186263 0
-0.0543527 0.018262 0
-0.0612862 0.0172661 0
-0.0676012 0.0155813 0
-0.0730617 0.0131765 0
-0.0774402 0.0100587 0
-0.0805289 0.0062808 0
-0.0821512 0.00194674 0
-0.0821713 -0.00278658 0
-0.0805015 -0.00771405 0
-0.0771094 -0.0125779 0
-0.0720339 -0.0170669 0
-0.0654033 -0.0208368 0
-0.0574493 -0.0235398 0
-0.048515 -0.0248641 0
-0.0390524 -0.0245841 0
-0.0296039 -0.0226179 0
-0.0207597 -0.0190832 0
-0.0130901 -0.0143351 0
-0.00705379 -0.00896657 0
-0.0029016 -0.00375836 0
-0.000601581 0.000409035 0
0.000195849 0.00264722 0
0.000141446 0.00210195 0
-0.000872227 0.00313951 0
-0.00386448 0.00935523 0
-0.00896089 0.0146528 0
-0.0154934 0.0188207 0
-0.0229985 0.0219536 0
-0.0311571 0.0242222 0
-0.0397295 0.0257533 0
-0.0485065 0.0265918 0
-0.0572791 0.0267111 0
-0.0658262 0.0260423 0
-0.0739131 0.0245062 0
-0.0812968 0.0220399 0
-0.0877339 0.0186156 0
-0.0929901 0.0142543 0
-0.0968491 0.00903284 0
-0.0991205 0.00308835 0
-0.099648 -0.00338059 0
-0.0983126 -0.0101252 0
-0.0950391 -0.0168324 0
-0.0898152 -0.0231118 0
-0.0827175 -0.0285201 0
-0.0739341 -0.0325939 0
-0.063782 -0.0348964 0
-0.0527169 -0.0350794 0
-0.0413265 -0.0329616 0
-0.0302975 -0.0286127 0
-0.0203474 -0.0224254 0
-0.0121171 -0.0151429 0
-0.00604132 -0.00780997 0
-0.00223306 -0.00164763 0
-0.000424205 0.00209759 0
1.91881e-05 0.00226258 0
-0.00110233 0.00511407 0
-0.00480891 0.0140795 0
-0.0109934 0.0212094 0
-0.0187789 0.0265821 0
-0.0275917 0.0305101 0
-0.0370614 0.033294 0
-0.0469265 0.0351192 0
-0.0569683 0.0360447 0
-0.0669733 0.0360358 0
-0.0767181 0.0350095 0
-0.0859672 0.032875 0
-0.0944769 0.0295643 0
-0.102001 0.0250527 0
-0.108299 0.0193717 0
-0.113141 0.0126163 0
-0.116314 0.00494897 0
-0.117628 -0.00340015 0
-0.11692 -0.0121482 0
-0.114062 -0.0209412 0
-0.108974 -0.0293148 0
-0.101665 -0.0367245 0
-0.0922567 -0.0425808 0
-0.0810187 -0.0462995 0
-0.0683865 -0.0473736 0
-0.0549737 -0.0454705 0
-0.0415566 -0.0405499 0
-0.0290133 -0.0329816 0
-0.0182079 -0.0236224 0
-0.00982261 -0.0137915 0
-0.00418355 -0.00511347 0
-0.00115099 0.000722017 0
-0.000118996 0.00216277 0
-0.00131517 0.00753158 0
-0.00567748 0.0197309 0
-0.012854 0.028919 0
-0.0217774 0.0355815 0
-0.0317769 0.040323 0
-0.0424395 0.0436134 0
-0.0534891 0.0457146 0
-0.064705 0.046707 0
-0.0758777 0.0465512 0
-0.08679 0.0451513 0
-0.0972126 0.042405 0
-0.106906 0.0382371 0
-0.115622 0.032621 0
-0.123113 0.0255919 0
-0.129128 0.0172531 0
-0.133424 0.00778133 0
-0.135771 -0.00257258 0
-0.135957 -0.0134967 0
-0.133794 -0.0246137 0
-0.12913 -0.0353937 0
-0.121892 -0.0451933 0
-0.112121 -0.0532911 0
-0.10001 -0.0589382 0
-0.085944 -0.0614337 0
-0.0705292 -0.0602379 0
-0.0546063 -0.0551227 0
-0.0392105 -0.046348 0
-0.0254594 -0.0348126 0
-0.0143517 -0.0220943 0
-0.00651506 -0.0102863 0
-0.00200795 -0.00164482 0
-0.000277056 0.00176672 0
-0.00149978 0.0103465 0
-0.00642842 0.0262069 0
-0.0144594 0.0376506 0
-0.024364 0.045678 0
-0.035391 0.0512529 0
-0.0470945 0.0550496 0
-0.0591906 0.057424 0
-0.0714627 0.0584856 0
-0.0837114 0.0581938 0
-0.0957312 0.0564408 0
-0.107303 0.0531104 0
-0.118195 0.048116 0
-0.128158 0.0414217 0
-0.136932 0.0330558 0
-0.144247 0.0231195 0
-0.149828 0.011792 0
-0.153399 -0.000665223 0
-0.154704 -0.0139133 0
-0.153496 -0.0275674 0
-0.149554 -0.0410461 0
-0.142716 -0.0536168 0
-0.132925 -0.0644301 0
-0.120271 -0.0725638 0
-0.105049 -0.0770965 0
-0.0878124 -0.0772263 0
-0.0694188 -0.0724507 0
-0.05103 -0.0628045 0
-0.0340245 -0.0491126 0
-0.0197793 -0.0331473 0
-0.00933121 -0.017518 0
-0.00304314 -0.00520833 0
-0.000466734 0.00102293 0
-0.00164509 0.0134914 0
-0.00702088 0.0333664 0
-0.0157306 0.0472317 0
-0.0264208 0.0566917 0
-0.0382786 0.063124 0
-0.0508343 0.0674377 0
-0.0638005 0.0700982 0
-0.076969 0.0712521 0
-0.0901538 0.0708608 0
-0.103165 0.0688045 0
-0.115796 0.0649507 0
-0.127824 0.0591947 0
-0.139001 0.0514829 0
-0.14906 0.0418271 0
-0.157711 0.0303146 0
-0.164651 0.0171173 0
-0.169569 0.00249922 0
-0.172162 -0.0131796 0
-0.17214 -0.029531 0
-0.169218 -0.0459465 0
-0.163149 -0.0616235 0
-0.153764 -0.0755995 0
-0.141027 -0.0867856 0
-0.125098 -0.0940262 0
-0.106418 -0.0962131 0
-0.0857944 -0.0924808 0
-0.0644552 -0.0825025 0
-0.044012 -0.0668633 0
-0.0262585 -0.0473954 0
-0.0127558 -0.0272207 0
-0.00431872 -0.0102308 0
-0.000702975 -0.000146779 0
-0.00174084 0.0168773 0
-0.0074177 0.0410332 0
-0.016596 0.0574529 0
-0.0278413 0.0684061 0
-0.0402976 0.0757237 0
-0.0534776 0.0805735 0
-0.0670932 0.0835442 0
-0.0809456 0.0848271 0
-0.094864 0.084389 0
-0.108675 0.0820982 0
-0.122189 0.0778025 0
-0.135192 0.0713737 0
-0.147444 0.0627329 0
-0.158674 0.0518663 0
-0.168587 0.0388387 0
-0.17686 0.0238059 0
-0.183157 0.00702614 0
-0.18714 -0.0111302 0
-0.188485 -0.0302578 0
-0.186867 -0.0497588 0
-0.181958 -0.0687892 0
-0.173475 -0.0863022 0
-0.161229 -0.101065 0
-0.145209 -0.111696 0
-0.125677 -0.116755 0
-0.103306 -0.114933 0
-0.079297 -0.105398 0
-0.0554256 -0.0882823 0
-0.0338992 -0.0652563 0
-0.016907 -0.0398546 0
-0.00590114 -0.0170397 0
-0.00100248 -0.00185223 0
-0.00177872 0.0203969 0
-0.0075888 0.0490006 0
-0.0169977 0.0680726 0
-0.028538 0.0805721 0
-0.0413279 0.088804 0
-0.0548669 0.094212 0
-0.0688656 0.09752 0
-0.0831336 0.0989717 0
-0.0975145 0.0985436 0
-0.111853 0.0960926 0
-0.125976 0.0914449 0
-0.139687 0.0844451 0
-0.152757 0.0749837 0
-0.164926 0.0630158 0
-0.175902 0.0485775 0
-0.185363 0.0318013 0
-0.192966 0.0129312 0
-0.198354 -0.00766519 0
-0.201187 -0.0295448 0
-0.201116 -0.0521605 0
-0.197748 -0.0746639 0
-0.190693 -0.0959668 0
-0.179601 -0.114737 0
-0.164249 -0.129397 0
-0.144659 -0.138175 0
-0.121274 -0.139269 0
-0.0951507 -0.131195 0
-0.0681146 -0.113393 0
-0.042728 -0.0870584 0
-0.0218751 -0.0558977 0
-0.00785302 -0.0260245 0
-0.0013822 -0.00423691 0
-0.00175347 0.0239291 0
-0.00751481 0.0570398 0
-0.0168974 0.0788248 0
-0.0284508 0.0929136 0
-0.0412842 0.102086 0
-0.054885 0.10807 0
-0.0689599 0.111736 0
-0.0833238 0.113388 0
-0.097833 0.113018 0
-0.112349 0.110473 0
-0.12672 0.105559 0
-0.14077 0.0980915 0
-0.154292 0.0879298 0
-0.167049 0.0749957 0
-0.178769 0.0592937 0
-0.189152 0.0409289 0
-0.19787 0.0201244 0
-0.204576 -0.00276462 0
-0.20893 -0.0272582 0
-0.210572 -0.0528764 0
-0.209077 -0.0788106 0
-0.203963 -0.103989 0
-0.194723 -0.127046 0
-0.180898 -0.146266 0
-0.162212 -0.159583 0
-0.138781 -0.164677 0
-0.111386 -0.159305 0
-0.0817463 -0.141959 0
-0.0526579 -0.112967 0
-0.0277026 -0.0757971 0
-0.010227 -0.0376228 0
-0.00185871 -0.00747781 0
-0.00166389 0.0273464 0
-0.0071904 0.0649103 0
-0.0162823 0.0894288 0
-0.0275563 0.105137 0
-0.0401276 0.115267 0
-0.0534719 0.121834 0
-0.067287 0.125862 0
-0.0813886 0.127727 0
-0.095643 0.127442 0
-0.109929 0.124851 0
-0.124117 0.11974 0
-0.138057 0.1119 0
-0.151575 0.101162 0
-0.16447 0.0874148 0
-0.176509 0.0706346 0
-0.187437 0.0508979 0
-0.196966 0.0284028 0
-0.204788 0.00348528 0
-0.210576 -0.0233659 0
-0.213986 -0.0517168 0
-0.214599 -0.0808524 0
-0.211873 -0.109787 0
-0.205159 -0.137203 0
-0.193754 -0.161339 0
-0.177042 -0.179908 0
-0.154727 -0.190099 0
-0.12717 -0.188835 0
-0.095804 -0.173435 0
-0.0634712 -0.142913 0
-0.0343706 -0.0999074 0
-0.0130604 -0.0522982 0
-0.00244732 -0.0117838 0
-0.00151352 0.0305238 0
-0.0066268 0.0723727 0
-0.0151704 0.0996019 0
-0.0258753 0.116943 0
-0.0378772 0.128035 0
-0.0506393 0.135172 0
-0.0638455 0.139545 0
-0.077307 0.141608 0
-0.0908971 0.141406 0
-0.104511 0.138787 0
-0.118043 0.133524 0
-0.131377 0.12539 0
-0.144378 0.114191 0
-0.156892 0.0997941 0
-0.168747 0.0821498 0
-0.179748 0.0613108 0
-0.189677 0.037449 0
-0.198289 0.010872 0
-0.205293 -0.01796 0
-0.210395 -0.048611 0
-0.213221 -0.0805191 0
-0.213209 -0.112858 0
-0.209599 -0.144457 0
-0.201463 -0.173626 0
-0.187827 -0.197969 0
-0.167909 -0.21427 0
-0.141523 -0.218607 0
-0.109609 -0.206942 0
-0.0748193 -0.176528 0
-0.0417896 -0.128423 0
-0.0163713 -0.0705114 0
-0.00316194 -0.0173931 0
-0.00131094 0.0333483 0
-0.00585312 0.0792037 0
-0.013613 0.109074 0
-0.023477 0.128039 0
-0.0346156 0.140079 0
-0.0464793 0.147754 0
-0.0587331 0.152423 0
-0.071179 0.154637 0
-0.0836944 0.154482 0
-0.0961905 0.15182 0
-0.108589 0.146421 0
-0.120809 0.138047 0
-0.132763 0.126489 0
-0.144354 0.111601 0
-0.155476 0.0933192 0
-0.166014 0.0716804 0
-0.17584 0.0468349 0
-0.184798 0.0190556 0
-0.192685 -0.0112523 0
-0.199274 -0.0436274 0
-0.20426 -0.0776909 0
-0.207114 -0.112845 0
-0.207022 -0.148172 0
-0.202874 -0.182194 0
-0.193346 -0.212566 0
-0.177136 -0.235801 0
-0.153393 -0.247205 0
-0.122369 -0.241282 0
-0.086238 -0.213109 0
-0.0497996 -0.16131 0
-0.0201574 -0.0926847 0
-0.00401573 -0.0245708 0
-0.00106963 0.0357289 0
-0.00491643 0.0852121 0
-0.0116959 0.117605 0
-0.0204816 0.138158 0
-0.0304921 0.151109 0
-0.0411666 0.159262 0
-0.0521481 0.16415 0
-0.0632264 0.166434 0
-0.0742812 0.166256 0
-0.0852409 0.163502 0
-0.0960561 0.157953 0
-0.106686 0.149366 0
-0.117092 0.137531 0
-0.127239 0.122297 0
-0.137093 0.1036 0
-0.146627 0.081472 0
-0.155812 0.056054 0
-0.164607 0.0275906 0
-0.172937 -0.00357089 0
-0.180669 -0.0369878 0
-0.18758 -0.0724332 0
-0.193237 -0.109592 0
-0.196844 -0.147909 0
-0.197177 -0.186272 0
-0.192614 -0.222578 0
-0.181335 -0.253278 0
-0.161748 -0.273057 0
-0.133231 -0.274972 0
-0.0971771 -0.251603 0
-0.0581777 -0.198253 0
-0.0243987 -0.119163 0
-0.00502336 -0.0336099 0
-0.000807392 0.0376059 0
-0.00388054 0.090255 0
-0.00953813 0.125 0
-0.0170587 0.14707 0
-0.0257199 0.160869 0
-0.0349542 0.169411 0
-0.0443823 0.174411 0
-0.0537813 0.17665 0
-0.0630345 0.176347 0
-0.0720892 0.173426 0
-0.0809285 0.167684 0
-0.0895549 0.158891 0
-0.0979831 0.14684 0
-0.106239 0.13139 0
-0.114364 0.112485 0
-0.122413 0.0901691 0
-0.13046 0.0645887 0
-0.138586 0.0359776 0
-0.146852 0.00463763 0
-0.155247 -0.0290694 0
-0.163673 -0.0650143 0
-0.171834 -0.103192 0
-0.179036 -0.143501 0
-0.184036 -0.185348 0
-0.185009 -0.227092 0
-0.17967 -0.265382 0
-0.165667 -0.294542 0
-0.141354 -0.306319 0
-0.107037 -0.290626 0
-0.0666533 -0.238614 0
-0.0290655 -0.150169 0
-0.0062055 -0.0448387 0
-0.000545637 0.0389589 0
-0.00282433 0.0942538 0
-0.00729024 0.131124 0
-0.0134245 0.1546 0
-0.0205717 0.169147 0
-0.0281642 0.177959 0
-0.0358058 0.182932 0
-0.0432645 0.184987 0
-0.0504313 0.184431 0
-0.0572775 0.181243 0
-0.0638233 0.175252 0
-0.0701188 0.166245 0
-0.0762347 0.15403 0
-0.0822598 0.138482 0
-0.088303 0.119561 0
-0.0944978 0.0973366 0
-0.101006 0.0719768 0
-0.108017 0.0437261 0
-0.115721 0.0128589 0
-0.124249 -0.0203673 0
-0.13365 -0.0558896 0
-0.143804 -0.0940017 0
-0.15419 -0.135104 0
-0.163674 -0.17926 0
-0.170364 -0.225516 0
-0.171632 -0.271029 0
-0.164415 -0.310115 0
-0.145961 -0.333513 0
-0.115206 -0.328502 0
-0.0749249 -0.281404 0
-0.0341297 -0.185762 0
-0.0075955 -0.0586397 0
-0.000308822 0.0398134 0
-0.00184045 0.0972097 0
-0.00513215 0.135926 0
-0.00983888 0.160639 0
-0.0153727 0.175789 0
-0.0211766 0.184714 0
-0.0268488 0.189491 0
-0.0321583 0.191196 0
-0.0370123 0.190243 0
-0.041414 0.186679 0
-0.0454273 0.180375 0
-0.0491552 0.171145 0
-0.0527275 0.158818 0
-0.0562961 0.143287 0
-0.0600353 0.124538 0
-0.0641448 0.102664 0
-0.0688554 0.0778683 0
-0.0744328 0.0504227 0
-0.081169 0.0206024 0
-0.089339 -0.0114129 0
-0.099139 -0.0456428 0
-0.11062 -0.0826139 0
-0.123503 -0.123223 0
-0.136891 -0.16827 0
-0.149012 -0.217696 0
-0.15709 -0.269504 0
-0.157496 -0.318451 0
-0.14638 -0.354748 0
-0.121079 -0.363323 0
-0.0826691 -0.325274 0
-0.0395738 -0.225782 0
-0.00924617 -0.0754814 0
-0.000124623 0.0402468 0
-0.00103604 0.0992193 0
-0.00327426 0.139446 0
-0.00660428 0.165155 0
-0.0104957 0.180698 0
-0.014417 0.18953 0
-0.0179814 0.193912 0
-0.020977 0.195081 0
-0.0233423 0.193577 0
-0.0251234 0.189527 0
-0.0264363 0.182853 0
-0.0274418 0.1734 0
-0.0283321 0.161025 0
-0.0293239 0.145641 0
-0.030655 0.127255 0
-0.0325845 0.105986 0
-0.0353956 0.0820679 0
-0.039401 0.0558059 0
-0.0449463 0.0275006 0
-0.0523975 -0.00268995 0
-0.0620661 -0.0348971 0
-0.0741568 -0.0697881 0
-0.0886517 -0.10867 0
-0.105005 -0.153081 0
-0.121774 -0.203994 0
-0.136307 -0.260594 0
-0.144668 -0.318594 0
-0.142045 -0.368343 0
-0.124051 -0.393023 0
-0.0895297 -0.368506 0
-0.0453886 -0.269787 0
-0.0112328 -0.0959604 0
-2.58972e-05 0.0403974 0
-0.000538438 0.100493 0
-0.00196422 0.141837 0
-0.0040692 0.1682 0
-0.00635753 0.183834 0
-0.00834504 0.192304 0
-0.00969273 0.19605 0
-0.0102375 0.196483 0
-0.00997121 0.194274 0
-0.00899876 0.189639 0
-0.00749761 0.182553 0
-0.00569132 0.172899 0
-0.00383708 0.160562 0
-0.00221715 0.145476 0
-0.00113214 0.127666 0
-0.000897238 0.10727 0
-0.00183942 0.0845378 0
-0.00429618 0.0597982 0
-0.00861848 0.033376 0
-0.0151769 0.0054443 0
-0.0243313 -0.0242084 0
-0.036386 -0.0563315 0
-0.0515433 -0.0924746 0
-0.0696675 -0.134799 0
-0.0898451 -0.185329 0
-0.109876 -0.244694 0
-0.125902 -0.310108 0
-0.132461 -0.372893 0
-0.12347 -0.415457 0
-0.0950678 -0.408996 0
-0.0515447 -0.316961 0
-0.0136468 -0.12084 0
-5.6158e-05 0.0404794 0
-0.000509991 0.101377 0
-0.00150401 0.143372 0
-0.00263857 0.169904 0
-0.00341822 0.185197 0
-0.00344102 0.19295 0
-0.00246669 0.195777 0
-0.000423707 0.195257 0
0.00261117 0.192198 0
0.00645385 0.1869 0
0.0108521 0.179393 0
0.0155095 0.169596 0
0.0201011 0.15742 0
0.024282 0.142817 0
0.0276942 0.125827 0
0.0299753 0.106593 0
0.0307675 0.0853648 0
0.0297288 0.0624667 0
0.0265397 0.0382188 0
0.0209012 0.0127985 0
0.0124982 -0.0140051 0
0.000997716 -0.0429795 0
-0.0139508 -0.0757207 0
-0.032573 -0.114807 0
-0.0545961 -0.163121 0
-0.0786008 -0.222867 0
-0.1013 -0.293211 0
-0.11711 -0.367421 0
-0.118531 -0.428499 0
-0.0986583 -0.444229 0
-0.0579207 -0.365988 0
-0.0165723 -0.151059 0
-0.000281738 0.0408173 0
-0.00117878 0.10239 0
-0.00228223 0.144457 0
-0.00279109 0.170463 0
-0.00217771 0.184805 0
-0.000182501 0.19137 0
0.00326328 0.192937 0
0.00807108 0.191247 0
0.0140277 0.187217 0
0.0208482 0.181218 0
0.0281994 0.173325 0
0.0357158 0.163489 0
0.0430117 0.151639 0
0.0496888 0.13774 0
0.0553448 0.121836 0
0.0595837 0.104064 0
0.0620305 0.0846547 0
0.0623469 0.0638991 0
0.0602446 0.0420776 0
0.0554851 0.0193378 0
0.0478477 -0.00450412 0
0.0370948 -0.0302271 0
0.0229421 -0.0593719 0
0.00496988 -0.0945612 0
-0.0172372 -0.139136 0
-0.0432777 -0.196806 0
-0.0709602 -0.26889 0
-0.0953345 -0.351558 0
-0.108114 -0.430162 0
-0.0993108 -0.471242 0
-0.064168 -0.414856 0
-0.0200382 -0.18767 0
-0.000815923 0.041915 0
-0.00289371 0.104267 0
-0.00482239 0.145612 0
-0.00509503 0.170089 0
-0.00315816 0.182628 0
0.000992821 0.187401 0
0.0071318 0.187321 0
0.014928 0.184258 0
0.0239935 0.179183 0
0.0339216 0.172503 0
0.0442953 0.164316 0
0.054689 0.154589 0
0.0646711 0.143261 0
0.0738091 0.130303 0
0.0816764 0.11575 0
0.0878653 0.0997219 0
0.0920025 0.0824127 0
0.0937677 0.0640596 0
0.0929075 0.0448796 0
0.0892372 0.0249657 0
0.0826145 0.00412796 0
0.0728663 -0.0183581 0
0.0597356 -0.0439574 0
0.0428352 -0.0751031 0
0.0216552 -0.115207 0
-0.00436934 -0.16867 0
-0.0347785 -0.238934 0
-0.0661707 -0.325747 0
-0.0905737 -0.41879 0
-0.0953997 -0.486591 0
-0.0694823 -0.460567 0
-0.0239312 -0.231639 0
-0.00186221 0.0445931 0
-0.00620702 0.108012 0
-0.00982546 0.147415 0
-0.0101805 0.168914 0
-0.0068242 0.17851 0
-0.000210454 0.180754 0
0.00898283 0.178636 0
0.0200941 0.174037 0
0.0325255 0.167908 0
0.0457413 0.160634 0
0.0592498 0.152302 0
0.0725836 0.142875 0
0.085289 0.132288 0
0.0969245 0.120503 0
0.107066 0.107541 0
0.115319 0.0934894 0
0.121333 0.0784942 0
0.124819 0.0627269 0
0.125561 0.0463297 0
0.123418 0.029329 0
0.118295 0.0115108 0
0.110076 -0.00777406 0
0.0985205 -0.029855 0
0.083216 -0.0570007 0
0.0635503 -0.0924642 0
0.0386764 -0.140515 0
0.00782895 -0.205833 0
-0.0281814 -0.291446 0
-0.063499 -0.393371 0
-0.0842873 -0.486396 0
-0.0722367 -0.49873 0
-0.0278469 -0.283417 0
-0.0037796 0.0502349 0
-0.0119517 0.114887 0
-0.018103 0.150309 0
-0.0185096 0.166781 0
-0.0132343 0.172011 0
-0.00351906 0.170924 0
0.0093339 0.16642 0
0.0242602 0.160215 0
0.0404381 0.153121 0
0.0572208 0.145423 0
0.0740703 0.137155 0
0.0905079 0.128251 0
0.106089 0.118626 0
0.120395 0.108224 0
0.133031 0.0970416 0
0.14364 0.0851261 0
0.151916 0.0725685 0
0.15761 0.0594725 0
0.160545 0.0459063 0
0.160607 0.031833 0
0.157725 0.0170128 0
0.151805 0.000861953 0
0.142609 -0.0177395 0
0.129678 -0.0408798 0
0.112261 -0.0715022 0
0.0892016 -0.113544 0
0.0590404 -0.171795 0
0.0207729 -0.251206 0
-0.0234955 -0.354025 0
-0.0618434 -0.466606 0
-0.0693952 -0.523019 0
-0.0308246 -0.342089 0
-0.00713708 0.0611516 0
-0.0211347 0.12614 0
-0.030036 0.154109 0
-0.0294724 0.162825 0
-0.0209082 0.162128 0
-0.00682204 0.157005 0
0.0107264 0.149937 0
0.0302679 0.14223 0
0.0508005 0.134395 0
0.0716258 0.12654 0
0.092211 0.118603 0
0.112111 0.110466 0
0.130926 0.102014 0
0.148292 0.0931653 0
0.163873 0.0838844 0
0.177368 0.0741779 0
0.188526 0.0640836 0
0.197145 0.0536438 0
0.20308 0.0428655 0
0.206226 0.0316647 0
0.206499 0.0197908 0
0.203779 0.00672348 0
0.197842 -0.00846795 0
0.188175 -0.0275529 0
0.173823 -0.0530602 0
0.153287 -0.0883907 0
0.124461 -0.137961 0
0.0849969 -0.207308 0
0.0339619 -0.302619 0
-0.0219018 -0.4238 0
-0.0555512 -0.524623 0
-0.0308462 -0.40376 0
-0.012545 0.0808337 0
-0.0338947 0.141805 0
-0.0433157 0.156766 0
-0.0383346 0.154623 0
-0.0233417 0.146773 0
-0.00244273 0.137375 0
0.0215948 0.127981 0
0.0470617 0.119178 0
0.0729461 0.111031 0
0.0986122 0.103413 0
0.123612 0.0961449 0
0.147589 0.0890473 0
0.170232 0.0819724 0
0.191261 0.0748121 0
0.210417 0.0675007 0
0.227474 0.0600091 0
0.242237 0.0523316 0
0.254549 0.0444645 0
0.264285 0.0363745 0
0.271338 0.0279565 0
0.27559 0.0189744 0
0.276868 0.00898188 0
0.274876 -0.00279749 0
0.269023 -0.0177039 0
0.25818 -0.0377148 0
0.240491 -0.0655108 0
0.213248 -0.104772 0
0.172983 -0.160768 0
0.116367 -0.241508 0
0.0443094 -0.35699 0
-0.0213047 -0.49217 0
-0.0238086 -0.458414 0
-0.0191499 0.112529 0