# vtk DataFile Version 2.0
Lid-driven cavity
ASCII
DATASET STRUCTURED_POINTS
DIMENSIONS 32 32 1
ORIGIN 0.015625 0.015625 0
SPACING 0.03125 0.03125 1
POINT_DATA 1024
SCALARS pressure double 1
LOOKUP_TABLE default
10.375
10.3156
10.2338
10.1629
10.1205
10.1141
10.1459
10.2169
10.3281
10.481
10.6775
10.9192
11.2065
11.5379
11.9093
12.313
12.7378
13.1696
13.5904
13.9801
14.3187
14.5886
14.777
14.8787
14.8969
14.8431
14.7361
14.5991
14.4576
14.3364
14.2578
14.2361
10.4343
10.3731
10.3083
10.2576
10.2318
10.2366
10.2744
10.3469
10.4556
10.6022
10.7886
11.0163
11.2857
11.5954
11.9415
12.3171
12.7122
13.1137
13.5054
13.8689
14.1856
14.4396
14.6195
14.7208
14.747
14.7093
14.6248
14.5143
14.3993
14.3002
14.2342
14.2144
10.5184
10.4336
10.3668
10.3233
10.3065
10.3182
10.3593
10.431
10.5347
10.6725
10.8468
11.0595
11.3115
11.6023
11.9289
12.2855
12.6627
13.0486
13.4273
13.7806
14.09
14.3393
14.5168
14.6179
14.646
14.6123
14.5341
14.4313
14.324
14.2299
14.1637
14.1368
10.5891
10.4735
10.3954
10.3509
10.3368
10.3506
10.3911
10.4583
10.5537
10.6796
10.8391
11.035
11.2695
11.5432
11.8546
12.1992
12.5685
12.9508
13.3301
13.6875
14.0033
14.2595
14.443
14.5477
14.5763
14.5402
14.4572
14.3482
14.2337
14.1308
14.0531
14.0106
10.6166
10.4696
10.3765
10.3262
10.3098
10.3209
10.3561
10.4145
10.4972
10.6073
10.7484
10.9248
11.1401
11.3969
11.6953
12.0325
12.4016
12.7901
13.1821
13.5573
13.894
14.1713
14.3727
14.4895
14.5225
14.4825
14.3883
14.263
14.1291
14.0055
13.9065
13.8422
10.5763
10.3993
10.2904
10.2317
10.2091
10.213
10.238
10.2823
10.3473
10.4362
10.5539
10.7063
10.8987
11.136
11.4206
11.7519
12.1251
12.5274
12.9427
13.3496
13.7236
14.0397
14.2765
14.4202
14.4678
14.4283
14.3214
14.1729
14.0094
13.8541
13.7242
13.6324
10.446
10.2415
10.117
10.0482
10.0161
10.0083
10.0178
10.0422
10.0828
10.1437
10.2309
10.3519
10.5145
10.7259
10.9915
11.3137
11.6906
12.1104
12.5576
13.0103
13.4405
13.8181
14.1147
14.3086
14.3901
14.3637
14.2483
14.0733
13.8717
13.6737
13.5028
13.3762
10.205
9.97572
9.83634
9.75593
9.71122
9.68703
9.67504
9.67237
9.6804
9.7039
9.75026
9.82878
9.94975
10.1235
10.3588
10.6621
11.0353
11.4707
11.9548
12.4659
12.9733
13.4408
13.8304
14.1092
14.2559
14.2665
14.1563
13.9574
13.7112
13.4591
13.2353
13.0642
9.83413
9.58279
9.42912
9.33559
9.27464
9.22866
9.18807
9.1495
9.11437
9.08803
9.07909
9.09876
9.16011
9.27702
9.46282
9.72872
10.082
10.5225
11.0415
11.62
12.2259
12.8163
13.3417
13.7537
14.0134
14.1015
14.024
13.8132
13.5203
13.203
12.9116
12.6828
9.31575
9.04539
8.87779
8.76906
8.68756
8.61333
8.53553
8.45011
8.3583
8.26577
8.18209
8.12036
8.09661
8.12892
8.23609
8.43576
8.74207
9.16458
9.70604
10.3534
11.0756
11.8241
12.5366
13.1446
13.5847
13.8126
13.816
13.6208
13.2876
12.8954
12.5195
12.2156
8.63504
8.34887
8.16737
8.04073
7.93345
7.82329
7.69796
7.55243
7.3873
7.20807
7.02491
6.85257
6.71016
6.62056
6.60915
6.70186
6.92237
7.28889
7.8251
8.52989
9.37741
10.3163
11.2715
12.1513
12.8599
13.3167
13.4768
13.3483
12.9958
12.5242
12.045
11.6441
7.7808
7.48227
7.28664
7.13877
6.99965
6.84475
6.66009
6.43915
6.18131
5.89124
5.57909
5.26085
4.95867
4.70066
4.5199
4.45239
4.53368
4.79416
5.27812
6.01083
6.97716
8.12795
9.37841
10.6125
11.6959
12.4986
12.9253
12.9469
12.6197
12.0745
11.4732
10.9483
6.74655
6.43935
6.22919
6.05648
5.87904
5.67004
5.41344
5.10071
4.7292
4.30195
3.82826
3.32474
2.81624
2.3363
1.92658
1.63493
1.51142
1.6022
1.96783
2.67707
3.73349
5.09779
6.6819
8.34884
9.92263
11.2123
12.0514
12.347
12.1232
11.5292
10.79
10.1094
5.53145
5.21944
4.99446
4.79347
4.57156
4.29956
3.959
3.53866
3.03306
2.44262
1.77483
1.046
0.283069
-0.475206
-1.17807
-1.76448
-2.16713
-2.31933
-2.1527
-1.5421
-0.451711
1.09868
3.0279
5.18652
7.36024
9.29054
10.7192
11.4566
11.4582
10.8689
9.98465
9.11241
4.14078
3.82784
3.58819
3.35644
3.08539
2.74345
2.30937
1.76857
1.11188
0.336075
-0.554274
-1.54422
-2.60573
-3.69548
-4.75382
-5.70589
-6.46557
-6.94293
-7.05505
-6.63918
-5.59942
-3.92575
-1.67925
0.992673
3.84894
6.56573
8.77873
10.1664
10.5656
10.0747
9.05403
7.95095
2.58582
2.27567
2.02236
1.75926
1.43728
1.02236
0.49001
-0.178294
-0.996257
-1.97172
-3.10413
-4.38113
-5.77479
-7.23836
-8.70421
-10.0841
-11.2727
-12.1557
-12.6222
-12.5047
-11.6237
-9.9256
-7.43678
-4.28323
-0.711899
2.903
6.08875
8.3616
9.38132
9.13253
8.00951
6.63517
0.883008
0.578931
0.314245
0.0222069
-0.347929
-0.832927
-1.46092
-2.25502
-3.23416
-4.41166
-5.792
-7.36654
-9.10881
-10.9701
-12.8764
-14.7274
-16.3998
-17.7544
-18.6493
-18.9183
-18.3151
-16.7201
-14.1109
-10.57
-6.32098
-1.75922
2.55011
5.94519
7.84894
8.0425
6.88729
5.20273
-0.94773
-1.24333
-1.51536
-1.82976
-2.23898
-2.78298
-3.4942
-4.40092
-5.52797
-6.89477
-8.51159
-10.3745
-12.4597
-14.718
-17.0711
-19.4092
-21.5933
-23.4616
-24.842
-25.5602
-25.3441
-23.9937
-21.4224
-17.6487
-12.8393
-7.36774
-1.85421
2.86958
5.94196
6.83404
5.76382
3.7355
-2.88552
-3.17161
-3.4448
-3.76956
-4.20067
-4.7824
-5.55251
-6.54528
-7.79194
-9.31849
-11.1414
-13.2619
-15.6598
-18.287
-21.0628
-23.8709
-26.5604
-28.9516
-30.847
-32.0487
-32.2943
-31.3215
-28.9613
-25.1528
-19.9733
-13.7238
-7.02023
-0.824942
3.69453
5.58998
4.77908
2.38494
-4.91182
-5.18941
-5.45493
-5.77118
-6.19694
-6.783
-7.57424
-8.61211
-9.93482
-11.5751
-13.5555
-15.8826
-18.54
-21.4816
-24.6261
-27.8536
-31.0057
-33.8902
-36.2915
-37.9851
-38.7223
-38.2214
-36.2317
-32.5995
-27.288
-20.4743
-12.6958
-4.97281
1.23973
4.48108
4.17164
1.41187
-7.01449
-7.28746
-7.53304
-7.81318
-8.19414
-8.73723
-9.49757
-10.5255
-11.8669
-13.5609
-15.6357
-18.1025
-20.9483
-24.1291
-27.5643
-31.1328
-34.6726
-37.9852
-40.8438
-43.0066
-44.2258
-44.2291
-42.7249
-39.4537
-34.2531
-27.134
-18.4757
-9.25554
-1.14963
3.81224
4.33076
1.24843
-9.19301
-9.46893
-9.67738
-9.88216
-10.1638
-10.601
-11.264
-12.2144
-13.5065
-15.1851
-17.2827
-19.8135
-22.7667
-26.1
-29.7339
-33.5477
-37.3793
-41.0285
-44.265
-46.8396
-48.4964
-48.9796
-48.0007
-45.211
-40.317
-33.1389
-23.8256
-13.1935
-3.02526
4.07807
5.86968
2.59099
-11.4656
-11.7564
-11.9023
-11.976
-12.0848
-12.3357
-12.821
-13.6169
-14.7859
-16.3771
-18.4248
-20.9439
-23.924
-27.3234
-31.0632
-35.0238
-39.0443
-42.9267
-46.4425
-49.343
-51.3676
-52.2641
-51.7618
-49.4789
-44.9908
-37.9201
-28.1325
-16.1623
-3.74201
6.02097
9.72025
6.52983
-13.8805
-14.2025
-14.2448
-14.1066
-13.9437
-13.9081
-14.1233
-14.6826
-15.6558
-17.0942
-19.0311
-21.4786
-24.4238
-27.8223
-31.5934
-35.6169
-39.7334
-43.7477
-47.436
-50.5549
-52.8495
-54.0585
-53.9046
-52.0313
-47.9169
-40.9763
-30.768
-17.4313
-2.45882
10.6787
17.2403
14.7156
-16.5372
-16.9068
-16.7738
-16.302
-15.7338
-15.2895
-15.1329
-15.3749
-16.0887
-17.3224
-19.1035
-21.4375
-24.3051
-27.6565
-31.4069
-35.4342
-39.5789
-43.6478
-47.4211
-50.6607
-53.1166
-54.526
-54.5774
-52.8841
-48.9015
-41.9171
-31.1389
-16.2083
1.8373
19.4049
30.3145
29.5546
-19.6299
-20.049
-19.6036
-18.6073
-17.451
-16.4509
-15.8158
-15.667
-16.0718
-17.0671
-18.6677
-20.8678
-23.6378
-26.9196
-30.6228
-34.6212
-38.7539
-42.8279
-46.6244
-49.906
-52.4215
-53.9046
-54.0187
-52.2907
-48.0977
-40.5584
-28.7066
-11.6686
10.2941
33.8447
51.42
54.4226
-23.5441
-23.9496
-22.9129
-21.0792
-19.0818
-17.3534
-16.1352
-15.5391
-15.608
-16.3554
-17.7754
-19.8446
-22.5199
-25.7327
-29.3848
-33.3452
-37.4496
-41.5031
-45.2842
-48.5499
-51.0382
-52.4641
-52.4803
-50.4941
-45.7257
-37.0844
-23.2453
-2.96117
24.1572
55.8489
83.6121
93.8908
-29.0869
-29.1834
-26.957
-23.756
-20.5684
-17.9206
-16.0336
-14.9642
-14.7028
-15.2227
-16.4878
-18.4524
-21.0566
-24.2198
-27.8349
-31.7649
-35.8412
-39.8645
-43.607
-46.8142
-49.203
-50.4533
-50.1849
-47.6915
-41.9449
-31.577
-14.8195
10.2016
44.6935
87.2956
130.348
153.968
-38.0569
-36.7439
-31.9928
-26.5277
-21.6993
-17.9581
-15.3717
-13.8567
-13.3171
-13.6677
-14.8337
-16.7436
-19.3194
-22.4677
-26.0724
-29.99
-34.0467
-38.0375
-41.7258
-44.8401
-47.0679
-48.0384
-47.2918
-44.0264
-36.8788
-24.1259
-3.48218
27.717
71.956
129.774
194.924
242.339
-54.6864
-47.9719
-37.7645
-28.6802
-21.8028
-16.9446
-13.7463
-11.9198
-11.2421
-11.5515
-12.7283
-14.6739
-17.2935
-20.4828
-24.1187
-28.0524
-32.1057
-36.068
-39.6922
-42.6876
-44.7056
-45.3121
-43.9405
-39.6404
-30.7312
-15.1029
10.0971
48.5172
104.522
182.302
280.531
368.262
-88.7698
-62.2867
-41.3933
-27.5658
-18.8116
-13.3612
-10.1157
-8.44875
-7.99786
-8.54347
-9.94132
-12.0822
-14.8668
-18.1889
-21.9249
-25.926
-30.0133
-33.9731
-37.5499
-40.4347
-42.2429
-42.4743
-40.4455
-34.9994
-24.2904
-5.90198
23.5263
68.7078
136.578
238.202
389.688
572.931
-172.041
-66.671
-30.2445
-15.6631
-8.73133
-5.121
-3.33815
-2.78517
-3.1846
-4.38769
-6.30021
-8.84725
-11.9533
-15.5293
-19.4644
-23.6194
-27.8223
-31.8629
-35.4845
-38.3697
-40.1129
-40.1699
-37.7639
-31.6461
-19.9786
-0.22208
31.2258
79.739
154.39
274.266
490.526
936.476
VECTORS velocity double
6.95151e-05 -6.95151e-05 0
0.000122659 1.63708e-05 0
-4.41627e-05 0.000150451 0
-0.000462491 0.000267877 0
-0.00108507 0.000354702 0
-0.00185519 0.00041542 0
-0.00272856 0.000457953 0
-0.00367431 0.000487796 0
-0.00466876 0.000506655 0
-0.00568845 0.000513027 0
-0.00670487 0.0005034 0
-0.00768174 0.000473471 0
-0.00857441 0.000419197 0
-0.00933128 0.000337676 0
-0.00989688 0.000227919 0
-0.0102163 9.15197e-05 0
-0.0102409 -6.69088e-05 0
-0.00993437 -0.000239656 0
-0.0092803 -0.000414408 0
-0.00829032 -0.000575574 0
-0.00700891 -0.000705841 0
-0.00551461 -0.000788453 0
-0.00391608 -0.000810074 0
-0.00234225 -0.000763762 0
-0.000927131 -0.000651357 0
0.000208751 -0.000484526 0
0.000977417 -0.00028414 0
0.0013386 -7.70433e-05 0
0.00131 0.00010564 0
0.00097557 0.000228794 0
0.00049682 0.000249955 0
0.000123433 0.000123432 0
-1.98473e-05 -0.000119183 0
-0.000306966 0.000300012 0
-0.00113223 0.000858892 0
-0.00250536 0.0013509 0
-0.00433608 0.00172497 0
-0.00651351 0.00199271 0
-0.00893919 0.00217971 0
-0.0115315 0.00230415 0
-0.0142178 0.00237103 0
-0.0169233 0.0023738 0
-0.019563 0.00229878 0
-0.0220381 0.00212999 0
-0.024236 0.00185332 0
-0.0260357 0.00146005 0
-0.0273143 0.000949741 0
-0.0279577 0.000332588 0
-0.027872 -0.000369071 0
-0.0269964 -0.00111972 0
-0.025316 -0.00186877 0
-0.022873 -0.00255414 0
-0.0197738 -0.0031079 0
-0.0161899 -0.00346458 0
-0.0123509 -0.00357147 0
-0.00852754 -0.00339959 0
-0.00500489 -0.00295329 0
-0.00204785 -0.00227552 0
0.000137497 -0.00144715 0
0.00144128 -0.000578997 0
0.00187818 0.000199287 0
0.00160281 0.00074495 0
0.0009141 0.000901262 0
0.000256374 0.000503239 0
-0.000189958 9.06221e-05 0
-0.00101335 0.00120072 0
-0.00269839 0.00246849 0
-0.00515024 0.00356629 0
-0.00821964 0.00440969 0
-0.011754 0.00501975 0
-0.0156174 0.00544182 0
-0.0196903 0.00570724 0
-0.0238583 0.00582221 0
-0.0280015 0.0057713 0
-0.0319869 0.0055264 0
-0.0356661 0.00505667 0
-0.0388787 0.0043372 0
-0.041459 0.00335611 0
-0.0432468 0.00212006 0
-0.0440994 0.000658353 0
-0.0439057 -0.000974312 0
-0.0425997 -0.00269608 0
-0.0401737 -0.00439882 0
-0.0366882 -0.00595252 0
-0.032281 -0.00721594 0
-0.0271693 -0.00805211 0
-0.0216443 -0.008348 0
-0.0160543 -0.00803646 0
-0.0107765 -0.00711687 0
-0.00617581 -0.00566966 0
-0.00255492 -0.00385925 0
-0.000102474 -0.00192314 0
0.0011523 -0.000148253 0
0.00136792 0.00115224 0
0.000894086 0.00165652 0
0.000270091 0.0010297 0
-0.000387116 0.000667696 0
-0.00182895 0.00288887 0
-0.00447964 0.00511607 0
-0.00808898 0.0069799 0
-0.0124251 0.00840162 0
-0.0172903 0.0094273 0
-0.0225179 0.0101253 0
-0.0279592 0.0105379 0
-0.0334685 0.0106688 0
-0.0388911 0.0104905 0
-0.0440579 0.00995939 0
-0.0487857 0.00903076 0
-0.0528825 0.00767249 0
-0.0561565 0.00587513 0
-0.0584273 0.0036596 0
-0.0595383 0.00108247 0
-0.0593698 -0.00176073 0
-0.0578501 -0.00473526 0
-0.0549662 -0.00766961 0
-0.0507752 -0.0103582 0
-0.0454164 -0.0125763 0
-0.0391179 -0.0141019 0
-0.0321962 -0.0147449 0
-0.0250448 -0.014381 0
-0.0181082 -0.0129868 0
-0.0118395 -0.0106691 0
-0.00664232 -0.00767792 0
-0.00280336 -0.00439587 0
-0.00043059 -0.00130306 0
0.00059012 0.00107072 0
0.000611774 0.00219021 0
0.00021599 0.00151578 0
-0.000592464 0.00164728 0
-0.00268155 0.00544021 0
-0.00633818 0.00887205 0
-0.0111332 0.0116283 0
-0.0167377 0.0136939 0
-0.0229048 0.0151673 0
-0.0294403 0.0161484 0
-0.0361742 0.0166901 0
-0.042939 0.0167907 0
-0.0495567 0.016409 0
-0.0558348 0.0154859 0
-0.0615683 0.0139656 0
-0.0665463 0.0118125 0
-0.0705615 0.00902428 0
-0.0734206 0.00564034 0
-0.0749554 0.0017476 0
-0.0750334 -0.00251641 0
-0.0735655 -0.00696721 0
-0.0705143 -0.0113728 0
-0.0659096 -0.0154508 0
-0.0598655 -0.0188866 0
-0.0525944 -0.0213611 0
-0.0444139 -0.0225878 0
-0.0357437 -0.0223596 0
-0.0270867 -0.0206018 0
-0.0189881 -0.0174214 0
-0.0119711 -0.0131399 0
-0.00645283 -0.00829106 0
-0.00265848 -0.003575 0
-0.000555251 0.000218725 0
0.000176364 0.00228894 0
0.000128716 0.00186049 0
-0.000797724 0.00303746 0
-0.00353312 0.00887451 0
-0.00819007 0.0137513 0
-0.0141549 0.0175088 0
-0.0209982 0.0202612 0
-0.0284245 0.0221933 0
-0.036216 0.0234494 0
-0.0441882 0.0240953 0
-0.0521611 0.0241232 0
-0.0599442 0.0234773 0
-0.0673325 0.0220839 0
-0.0741093 0.0198778 0
-0.0800528 0.0168218 0
-0.0849445 0.0129218 0
-0.0885779 0.00823536 0
-0.0907678 0.00287727 0
-0.0913581 -0.00297775 0
-0.0902278 -0.00910415 0
-0.0872973 -0.0152175 0
-0.0825477 -0.0209603 0
-0.0760458 -0.025923 0
-0.0679657 -0.029676 0
-0.0586054 -0.0318138 0
-0.0483948 -0.0320144 0
-0.0378872 -0.0301116 0
-0.0277256 -0.0261717 0
-0.018576 -0.0205562 0
-0.011027 -0.013942 0
-0.00547103 -0.00727433 0
-0.00200241 -0.00165379 0
-0.000366955 0.00179439 0
2.32654e-05 0.00201247 0
-0.000996583 0.00483177 0
-0.00435473 0.0131737 0
-0.00997026 0.0197246 0
-0.0170512 0.0245813 0
-0.0250735 0.0280544 0
-0.0336974 0.0304504 0
-0.0426872 0.0319735 0
-0.0518507 0.032707 0
-0.0610038 0.0326374 0
-0.0699521 0.0316945 0
-0.078487 0.0297899 0
-0.0863869 0.0268485 0
-0.0934227 0.0228305 0
-0.0993648 0.0177468 0
-0.103989 0.011668 0
-0.107084 0.00472973 0
-0.108459 -0.00286479 0
-0.107949 -0.0108573 0
-0.105421 -0.0189235 0
-0.100791 -0.0266343 0
-0.0940597 -0.0334817 0
-0.0853441 -0.0389131 0
-0.0749003 -0.0423808 0
-0.0631469 -0.0434112 0
-0.0506719 -0.0416973 0
-0.0382127 -0.0372068 0
-0.0265958 -0.0302877 0
-0.0166235 -0.0217319 0
-0.00891814 -0.0127458 0
-0.00376467 -0.00480441 0
-0.00101648 0.000561364 0
-9.84744e-05 0.00193726 0
-0.00118208 0.00701043 0
-0.00511745 0.0182886 0
-0.0116172 0.026725 0
-0.0197265 0.0327712 0
-0.0288374 0.0369977 0
-0.038574 0.0398676 0
-0.0486885 0.0416605 0
-0.0589878 0.0424828 0
-0.0692901 0.0423169 0
-0.0794046 0.0410779 0
-0.0891247 0.0386615 0
-0.098228 0.03498 0
-0.10648 0.0299864 0
-0.113636 0.0236897 0
-0.119452 0.0161646 0
-0.123681 0.00755797 0
-0.12609 -0.00190884 0
-0.126464 -0.0119493 0
-0.124609 -0.022215 0
-0.12037 -0.0322123 0
-0.11367 -0.0413348 0
-0.104546 -0.0488989 0
-0.0931904 -0.0541948 0
-0.0799797 -0.0565613 0
-0.0655074 -0.0554947 0
-0.0505853 -0.0507907 0
-0.0362016 -0.0427043 0
-0.0234074 -0.0320818 0
-0.0131243 -0.0203845 0
-0.00591317 -0.0095303 0
-0.00179927 -0.00157483 0
-0.000241308 0.00159748 0
-0.00134615 0.00953866 0
-0.00579004 0.0241396 0
-0.0130674 0.0346511 0
-0.0220836 0.0419706 0
-0.0321612 0.0469867 0
-0.0428965 0.0503505 0
-0.0540356 0.0524314 0
-0.0653894 0.053365 0
-0.076784 0.0531315 0
-0.0880368 0.0516306 0
-0.0989474 0.0487395 0
-0.109295 0.0443531 0
-0.11884 0.0384097 0
-0.127324 0.0309071 0
-0.134476 0.021914 0
-0.140015 0.0115773 0
-0.143661 0.000127194 0
-0.145148 -0.0121248 0
-0.144223 -0.0248191 0
-0.14066 -0.0374108 0
-0.134294 -0.0492019 0
-0.125071 -0.0593781 0
-0.113087 -0.0670556 0
-0.0986425 -0.0713561 0
-0.082291 -0.0715237 0
-0.0648774 -0.0670973 0
-0.047528 -0.0581307 0
-0.0315571 -0.0454206 0
-0.0182518 -0.0306341 0
-0.00855475 -0.0161888 0
-0.00276318 -0.00482179 0
-0.000416438 0.000939733 0
-0.00147997 0.0123648 0
-0.00633948 0.0306169 0
-0.0142558 0.0433675 0
-0.0240237 0.0520383 0
-0.034912 0.0578848 0
-0.046497 0.0617727 0
-0.0585232 0.0641746 0
-0.0708088 0.0652612 0
-0.083191 0.0650122 0
-0.095499 0.0633108 0
-0.107541 0.0600123 0
-0.119102 0.0549882 0
-0.129936 0.0481538 0
-0.139775 0.0394857 0
-0.148323 0.0290357 0
-0.155269 0.0169404 0
-0.160289 0.00343093 0
-0.163069 -0.0111622 0
-0.163305 -0.0264703 0
-0.160707 -0.0419204 0
-0.155026 -0.0567392 0
-0.146097 -0.0699924 0
-0.133898 -0.0806242 0
-0.118609 -0.0875218 0
-0.100688 -0.0896302 0
-0.0809498 -0.0861427 0
-0.0606039 -0.0767805 0
-0.0412093 -0.0621363 0
-0.0244656 -0.0439673 0
-0.0118151 -0.0252033 0
-0.00396898 -0.00944501 0
-0.000638031 -0.000114737 0
-0.00157472 0.0154195 0
-0.00673322 0.0375802 0
-0.0151184 0.0527057 0
-0.0254497 0.0627993 0
-0.0369575 0.0695199 0
-0.049204 0.0739691 0
-0.0619343 0.0767345 0
-0.0749752 0.0780276 0
-0.0881767 0.0778295 0
-0.101382 0.0760063 0
-0.11441 0.0723877 0
-0.127053 0.066816 0
-0.139068 0.0591756 0
-0.150179 0.0494134 0
-0.160077 0.0375547 0
-0.168427 0.0237169 0
-0.174875 0.008123 0
-0.179061 -0.00888888 0
-0.180646 -0.0269231 0
-0.179294 -0.0454169 0
-0.174672 -0.0635463 0
-0.166505 -0.0802812 0
-0.154627 -0.0944125 0
-0.139055 -0.104595 0
-0.12009 -0.109443 0
-0.0984314 -0.107726 0
-0.0752879 -0.0986866 0
-0.0524016 -0.0825111 0
-0.0318938 -0.060844 0
-0.015818 -0.0370529 0
-0.00548311 -0.0157764 0
-0.000922304 -0.00167507 0
-0.00162254 0.0186167 0
-0.00694234 0.0448613 0
-0.0155986 0.0624661 0
-0.026274 0.0740455 0
-0.0381757 0.0816832 0
-0.0508553 0.086732 0
-0.0640577 0.0899044 0
-0.0776179 0.0914588 0
-0.0913986 0.0913805 0
-0.105257 0.0895186 0
-0.119028 0.0856749 0
-0.132514 0.0796581 0
-0.145482 0.0713165 0
-0.157659 0.0605605 0
-0.168735 0.0473818 0
-0.178367 0.0318714 0
-0.186186 0.0142358 0
-0.191812 -0.00519023 0
-0.194879 -0.0259699 0
-0.195018 -0.0475831 0
-0.191831 -0.0691891 0
-0.184935 -0.0897012 0
-0.174011 -0.107795 0
-0.158874 -0.12192 0
-0.139602 -0.130356 0
-0.116687 -0.131387 0
-0.0912199 -0.123636 0
-0.0650217 -0.106646 0
-0.0405883 -0.0816504 0
-0.0206653 -0.0522453 0
-0.00737105 -0.0242132 0
-0.00128641 -0.00388378 0
-0.00161763 0.0218569 0
-0.00694528 0.0522685 0
-0.0156531 0.072423 0
-0.0264284 0.0855394 0
-0.0384686 0.0941311 0
-0.0513159 0.0998109 0
-0.0647127 0.103425 0
-0.078499 0.105285 0
-0.0925488 0.105385 0
-0.106735 0.103559 0
-0.120908 0.0995798 0
-0.134891 0.0932223 0
-0.148467 0.0842959 0
-0.16138 0.0726714 0
-0.173337 0.0583034 0
-0.184007 0.041251 0
-0.193029 0.0216977 0
-0.200024 -3.17497e-05 0
-0.204615 -0.0234695 0
-0.206418 -0.048142 0
-0.204999 -0.0732364 0
-0.199885 -0.0976634 0
-0.190599 -0.120044 0
-0.176732 -0.138674 0
-0.158076 -0.151531 0
-0.134819 -0.156385 0
-0.107801 -0.151122 0
-0.0787718 -0.134388 0
-0.050491 -0.106623 0
-0.0264162 -0.0712706 0
-0.00969133 -0.0352071 0
-0.00174783 -0.00691803 0
-0.00155734 0.0250319 0
-0.00673153 0.0595954 0
-0.0152592 0.0823316 0
-0.0258741 0.097021 0
-0.0377763 0.106592 0
-0.050498 0.112919 0
-0.0637746 0.11699 0
-0.0774469 0.119178 0
-0.0913978 0.119492 0
-0.105515 0.117755 0
-0.119672 0.113714 0
-0.133712 0.107111 0
-0.147449 0.0977196 0
-0.16066 0.0853713 0
-0.173083 0.069984 0
-0.184426 0.0515829 0
-0.194362 0.0303233 0
-0.202535 0.00651103 0
-0.208577 -0.0193792 0
-0.212112 -0.0468945 0
-0.21271 -0.0753045 0
-0.209836 -0.103584 0
-0.202869 -0.130376 0
-0.191164 -0.153912 0
-0.174181 -0.171931 0
-0.151713 -0.181711 0
-0.124207 -0.18032 0
-0.0931567 -0.16527 0
-0.0614096 -0.135769 0
-0.0330703 -0.0945387 0
-0.0124891 -0.049245 0
-0.00232344 -0.0109893 0
-0.00144305 0.0280323 0
-0.00630477 0.0666309 0
-0.0144207 0.0919396 0
-0.024611 0.108218 0
-0.0360898 0.118776 0
-0.0483779 0.125745 0
-0.061198 0.130261 0
-0.0743868 0.132768 0
-0.0878333 0.133299 0
-0.101441 0.131672 0
-0.115104 0.127616 0
-0.1287 0.120845 0
-0.142078 0.111101 0
-0.15506 0.0981827 0
-0.16744 0.0819762 0
-0.178981 0.0624752 0
-0.189419 0.0398043 0
-0.198455 0.014239 0
-0.205744 -0.0137766 0
-0.210954 -0.0437514 0
-0.2137 -0.0751038 0
-0.213417 -0.106941 0
-0.209375 -0.138028 0
-0.200705 -0.166636 0
-0.186511 -0.190382 0
-0.166115 -0.206125 0
-0.139433 -0.210094 0
-0.107499 -0.198479 0
-0.0730102 -0.168795 0
-0.040554 -0.122308 0
-0.0157909 -0.0668202 0
-0.00302899 -0.0163417 0
-0.00128069 0.030756 0
-0.00568508 0.0731733 0
-0.0131726 0.101001 0
-0.0226849 0.11886 0
-0.0334611 0.130389 0
-0.0450086 0.137967 0
-0.0570326 0.142883 0
-0.0693607 0.145663 0
-0.0818853 0.146375 0
-0.0945244 0.144843 0
-0.107199 0.140784 0
-0.119821 0.133895 0
-0.132284 0.123893 0
-0.144468 0.110556 0
-0.156229 0.0937444 0
-0.167409 0.0734286 0
-0.177825 0.0497055 0
-0.187267 0.0228151 0
-0.195484 -0.00684742 0
-0.202199 -0.0387542 0
-0.207072 -0.0724835 0
-0.209573 -0.107344 0
-0.208917 -0.142324 0
-0.204047 -0.175881 0
-0.193721 -0.205657 0
-0.17674 -0.228227 0
-0.15237 -0.239044 0
-0.120979 -0.232855 0
-0.0848268 -0.20506 0
-0.0487163 -0.15461 0
-0.0196016 -0.0883958 0
-0.00387946 -0.0232502 0
-0.00108091 0.0331176 0
-0.00490988 0.0790451 0
-0.0115832 0.10929 0
-0.0201913 0.128691 0
-0.0300077 0.141151 0
-0.0405262 0.149272 0
-0.0514304 0.154506 0
-0.0625354 0.157474 0
-0.0737352 0.15829 0
-0.0849636 0.156796 0
-0.0961695 0.152712 0
-0.107303 0.145723 0
-0.118311 0.135536 0
-0.129132 0.121916 0
-0.139699 0.104712 0
-0.14994 0.0838815 0
-0.159774 0.0595039 0
-0.169106 0.0317904 0
-0.177803 0.00108992 0
-0.185676 -0.0321026 0
-0.192466 -0.0674726 0
-0.197733 -0.104586 0
-0.200704 -0.142767 0
-0.200199 -0.180811 0
-0.194672 -0.21658 0
-0.182396 -0.246561 0
-0.161901 -0.265575 0
-0.132694 -0.266923 0
-0.0962883 -0.243549 0
-0.0573334 -0.191186 0
-0.0239053 -0.114362 0
-0.00489097 -0.0320206 0
-0.000858852 0.0350574 0
-0.00403367 0.0841091 0
-0.00975483 0.11662 0
-0.0172764 0.13749 0
-0.0259135 0.150805 0
-0.0351486 0.159372 0
-0.0446422 0.164804 0
-0.0541961 0.167834 0
-0.0637064 0.168639 0
-0.0731243 0.167093 0
-0.0824301 0.162926 0
-0.0916175 0.155829 0
-0.100686 0.145506 0
-0.10964 0.131721 0
-0.11849 0.114324 0
-0.127254 0.0932746 0
-0.13596 0.0686512 0
-0.144635 0.0406496 0
-0.153282 0.00957446 0
-0.161834 -0.0241619 0
-0.170154 -0.0603029 0
-0.177939 -0.0987034 0
-0.184502 -0.139116 0
-0.188637 -0.180832 0
-0.188572 -0.222151 0
-0.182106 -0.259732 0
-0.166996 -0.288009 0
-0.141729 -0.298963 0
-0.106757 -0.282886 0
-0.066122 -0.231439 0
-0.0286721 -0.144987 0
-0.006085 -0.0429966 0
-0.000633626 0.0365499 0
-0.00312707 0.0882849 0
-0.00782272 0.122861 0
-0.0141352 0.145083 0
-0.0214255 0.159139 0
-0.0291685 0.168015 0
-0.0370056 0.173491 0
-0.0447283 0.176424 0
-0.0522382 0.17707 0
-0.0595085 0.17535 0
-0.0665552 0.171021 0
-0.0734194 0.163786 0
-0.0801579 0.153357 0
-0.0868408 0.139507 0
-0.0935528 0.1221 0
-0.100398 0.101108 0
-0.107502 0.0766272 0
-0.11501 0.0488567 0
-0.123067 0.018071 0
-0.131753 -0.0154197 0
-0.141082 -0.0513964 0
-0.150914 -0.0899931 0
-0.16073 -0.131447 0
-0.169411 -0.175686 0
-0.175099 -0.221674 0
-0.175222 -0.266552 0
-0.166806 -0.304715 0
-0.147224 -0.327106 0
-0.115567 -0.321373 0
-0.0747577 -0.274396 0
-0.0338689 -0.180369 0
-0.00749497 -0.0565765 0
-0.000427993 0.0376115 0
-0.00227613 0.0915648 0
-0.00595409 0.127955 0
-0.0110099 0.151358 0
-0.016848 0.165993 0
-0.0229433 0.175 0
-0.0289278 0.180328 0
-0.0345919 0.182973 0
-0.039851 0.183289 0
-0.0447072 0.181257 0
-0.0492185 0.176672 0
-0.0534783 0.169259 0
-0.0576037 0.158748 0
-0.0617307 0.144927 0
-0.0660154 0.127677 0
-0.0706372 0.106998 0
-0.0758039 0.0830087 0
-0.0817545 0.0559344 0
-0.0887514 0.0260467 0
-0.0970445 -0.0064157 0
-0.106798 -0.0413185 0
-0.118036 -0.0790011 0
-0.130472 -0.120186 0
-0.143204 -0.165534 0
-0.154463 -0.21488 0
-0.161497 -0.26619 0
-0.160733 -0.314257 0
-0.148423 -0.349455 0
-0.122057 -0.357047 0
-0.0828871 -0.318701 0
-0.0394695 -0.220371 0
-0.00917311 -0.0732446 0
-0.000268676 0.0383081 0
-0.00158356 0.0940312 0
-0.00434969 0.131932 0
-0.00818897 0.156275 0
-0.0125375 0.171262 0
-0.0168822 0.18017 0
-0.0208645 0.185124 0
-0.0242912 0.187268 0
-0.0271052 0.187068 0
-0.0293482 0.184578 0
-0.0311279 0.179642 0
-0.0325955 0.172016 0
-0.0339312 0.161451 0
-0.0353376 0.147756 0
-0.0370395 0.130834 0
-0.0392854 0.110708 0
-0.04235 0.0875293 0
-0.0465393 0.0615538 0
-0.052194 0.0330788 0
-0.0596729 0.00232419 0
-0.0692766 -0.0307012 0
-0.0811942 -0.0664629 0
-0.0953904 -0.106092 0
-0.111291 -0.150995 0
-0.127422 -0.202028 0
-0.141117 -0.258313 0
-0.148453 -0.315562 0
-0.144687 -0.364226 0
-0.125565 -0.387765 0
-0.0901205 -0.362597 0
-0.0454531 -0.26456 0
-0.0111936 -0.0936114 0
-0.00018836 0.0387652 0
-0.00117446 0.0958751 0
-0.00325071 0.134931 0
-0.00601064 0.159876 0
-0.00889897 0.174898 0
-0.0114341 0.183414 0
-0.0132979 0.187726 0
-0.0143425 0.189137 0
-0.0145596 0.18823 0
-0.0140443 0.185144 0
-0.012963 0.179775 0
-0.0115301 0.171918 0
-0.00999147 0.161347 0
-0.00861615 0.147892 0
-0.00769666 0.131481 0
-0.0075466 0.112157 0
-0.00849755 0.0900956 0
-0.010899 0.0655783 0
-0.0151212 0.0389312 0
-0.0215546 0.0103842 0
-0.0305769 -0.0201352 0
-0.0424952 -0.0531928 0
-0.057492 -0.0901691 0
-0.0753815 -0.133128 0
-0.0951887 -0.183956 0
-0.11466 -0.243219 0
-0.1299 -0.30808 0
-0.135472 -0.369901 0
-0.125395 -0.41129 0
-0.0959881 -0.403923 0
-0.0517779 -0.312111 0
-0.0136464 -0.118451 0
-0.000231063 0.0391846 0
-0.0012109 0.0974216 0
-0.00295547 0.137205 0
-0.00487284 0.162279 0
-0.00638457 0.176895 0
-0.00707324 0.184641 0
-0.00671142 0.188002 0
-0.00523869 0.188434 0
-0.00272501 0.186637 0
0.000662808 0.182834 0
0.00468908 0.176978 0
0.00907153 0.1689 0
0.0134952 0.158402 0
0.0176202 0.145336 0
0.0210887 0.129649 0
0.0235308 0.111397 0
0.0245717 0.0907655 0
0.0238414 0.0680401 0
0.020983 0.04355 0
0.0156504 0.0175314 0
0.00748204 -0.0100919 0
-0.00388003 -0.0399557 0
-0.0187642 -0.0735253 0
-0.0373299 -0.113317 0
-0.0592347 -0.162056 0
-0.0829767 -0.221906 0
-0.105185 -0.291944 0
-0.120245 -0.365404 0
-0.120712 -0.425398 0
-0.09984 -0.440095 0
-0.0583108 -0.361679 0
-0.0166138 -0.148712 0
-0.000463926 0.0398796 0
-0.00192155 0.0991641 0
-0.00385022 0.139136 0
-0.0052491 0.163665 0
-0.00548945 0.177262 0
-0.0042783 0.183752 0
-0.00155316 0.185804 0
0.00260504 0.185001 0
0.00800702 0.182154 0
0.0143809 0.177554 0
0.0214099 0.171202 0
0.0287442 0.162959 0
0.0360066 0.152657 0
0.0427985 0.140165 0
0.0487087 0.125441 0
0.0533227 0.108549 0
0.0562352 0.0896611 0
0.0570658 0.0690444 0
0.0554743 0.0469955 0
0.0511668 0.0237261 0
0.0438792 -0.000830524 0
0.0333529 -0.0273287 0
0.0193045 -0.0572196 0
0.0013199 -0.0930723 0
-0.0209497 -0.138126 0
-0.0469781 -0.196065 0
-0.0744596 -0.268096 0
-0.0983599 -0.350292 0
-0.110388 -0.428014 0
-0.10067 -0.468068 0
-0.0646933 -0.411211 0
-0.0201225 -0.185448 0
-0.00100043 0.041344 0
-0.00365411 0.101811 0
-0.00645359 0.141217 0
-0.00769992 0.164229 0
-0.00672897 0.175967 0
-0.00348351 0.18059 0
0.00182952 0.180928 0
0.00890069 0.178647 0
0.0173693 0.174637 0
0.0268475 0.16922 0
0.0369357 0.16242 0
0.0472218 0.154121 0
0.0572793 0.144175 0
0.0666692 0.132465 0
0.0749474 0.118953 0
0.0816767 0.103694 0
0.0864425 0.0868377 0
0.0888722 0.0686075 0
0.0886543 0.0492417 0
0.0855479 0.0288938 0
0.0793692 0.00746806 0
0.0699269 -0.0156587 0
0.0569623 -0.0418767 0
0.0401 -0.0735683 0
0.0188581 -0.114119 0
-0.00727874 -0.167908 0
-0.0377169 -0.238334 0
-0.0688986 -0.324971 0
-0.0927878 -0.417417 0
-0.0968442 -0.484328 0
-0.0701128 -0.457659 0
-0.0240566 -0.229627 0
-0.00204195 0.0443863 0
-0.00695312 0.106334 0
-0.0114523 0.143993 0
-0.0128352 0.164082 0
-0.0105406 0.172849 0
-0.0049482 0.174871 0
0.00331337 0.173072 0
0.0136193 0.169126 0
0.0254018 0.163907 0
0.0381495 0.157723 0
0.0513886 0.150589 0
0.0646624 0.142392 0
0.0775171 0.132992 0
0.0894983 0.122277 0
0.100157 0.110204 0
0.109059 0.0968103 0
0.115807 0.0822077 0
0.120053 0.0665613 0
0.121524 0.0500352 0
0.120023 0.0327074 0
0.115419 0.014437 0
0.107578 -0.00534392 0
0.0962562 -0.0279052 0
0.0810563 -0.0554775 0
0.0613897 -0.0913011 0
0.0364471 -0.139646 0
0.00550557 -0.205216 0
-0.030489 -0.290913 0
-0.0655216 -0.392553 0
-0.085725 -0.484932 0
-0.0729352 -0.496576 0
-0.0280085 -0.281692 0
-0.0039407 0.050369 0
-0.0126315 0.113953 0
-0.0196268 0.147869 0
-0.021076 0.163039 0
-0.01693 0.167451 0
-0.00833476 0.166081 0
0.00348579 0.16178 0
0.0175228 0.156075 0
0.0329911 0.149707 0
0.0492715 0.142895 0
0.0658434 0.135606 0
0.0822354 0.127709 0
0.0979976 0.119058 0
0.112692 0.109536 0
0.125893 0.0990861 0
0.137201 0.0877179 0
0.146255 0.0754984 0
0.152751 0.0625281 0
0.156454 0.0488947 0
0.157202 0.0346013 0
0.154886 0.0194628 0
0.149401 0.00295646 0
0.140513 -0.0159953 0
0.127772 -0.0394466 0
0.110446 -0.0703398 0
0.0874066 -0.112625 0
0.0572236 -0.171112 0
0.018933 -0.250732 0
-0.0252247 -0.353544 0
-0.0631821 -0.46578 0
-0.0701161 -0.521584 0
-0.0310133 -0.340714 0
-0.00725294 0.0615626 0
-0.0216609 0.125858 0
-0.0313046 0.152603 0
-0.031741 0.16019 0
-0.0243241 0.158737 0
-0.0114162 0.153292 0
0.00502589 0.146306 0
0.0236068 0.138931 0
0.0433698 0.13162 0
0.0636459 0.124426 0
0.0839191 0.11723 0
0.103748 0.109864 0
0.122725 0.102163 0
0.140463 0.0939986 0
0.156591 0.0852942 0
0.170765 0.0760272 0
0.182682 0.0662183 0
0.192086 0.0559082 0
0.198779 0.0451184 0
0.202616 0.0337937 0
0.20348 0.021722 0
0.201238 0.0084238 0
0.195671 -0.00700774 0
0.186281 -0.0263023 0
0.172123 -0.0520005 0
0.151717 -0.087519 0
0.122973 -0.137291 0
0.0835597 -0.206849 0
0.0325969 -0.302306 0
-0.0230445 -0.423419 0
-0.056238 -0.523817 0
-0.0310472 -0.402774 0
-0.0125762 0.0813917 0
-0.0341435 0.142004 0
-0.0441145 0.156071 0
-0.0399965 0.15304 0
-0.0260754 0.144549 0
-0.00633058 0.134827 0
0.0165947 0.125404 0
0.0410784 0.116769 0
0.0661545 0.108944 0
0.0912209 0.10176 0
0.115848 0.0949958 0
0.139683 0.0884348 0
0.162407 0.0818912 0
0.183717 0.0752228 0
0.203325 0.0683345 0
0.220962 0.0611753 0
0.236388 0.0537269 0
0.249401 0.0459833 0
0.25983 0.0379206 0
0.267533 0.0294517 0
0.272367 0.0203654 0
0.274149 0.0102409 0
0.272574 -0.00168377 0
0.267061 -0.0167223 0
0.256501 -0.0368624 0
0.239047 -0.0647973 0
0.211996 -0.104218 0
0.171879 -0.160393 0
0.115377 -0.241298 0
0.0434461 -0.356855 0
-0.0218912 -0.49185 0