# vtk DataFile Version 2.0
Lid-driven cavity
ASCII
DATASET STRUCTURED_POINTS
DIMENSIONS 32 32 1
ORIGIN 0.015625 0.015625 0
SPACING 0.03125 0.03125 1
POINT_DATA 1024
SCALARS pressure double 1
LOOKUP_TABLE default
30.4349
30.2975
30.0642
29.8123
29.5877
29.4128
29.2982
29.2512
29.2797
29.3941
29.6058
29.9258
30.3615
30.9144
31.5776
32.3332
33.1521
33.9946
34.8092
35.5377
36.122
36.5134
36.68
36.6148
36.3384
35.8977
35.3591
34.7991
34.2953
33.916
33.7122
33.6953
30.5723
30.4292
30.2358
30.0362
29.8589
29.7201
29.6293
29.5941
29.6231
29.7262
29.9143
30.1977
30.5836
31.0741
31.6635
32.3367
33.0679
33.8223
34.5533
35.2079
35.7334
36.0854
36.2361
36.1806
35.9397
35.5576
35.0951
34.6184
34.1918
33.8692
33.6902
33.6784
30.814
30.6107
30.4104
30.2294
30.0774
29.9598
29.8806
29.8451
29.8611
29.9389
30.0902
30.3265
30.657
31.0867
31.6132
32.225
32.8999
33.6057
34.2976
34.9231
35.4295
35.7713
35.9195
35.8683
35.6383
35.2736
34.8344
34.3851
33.9834
33.6763
33.4986
33.4772
31.0727
30.7848
30.5519
30.3666
30.2206
30.1071
30.0231
29.9705
29.9563
29.9912
30.0889
30.2639
30.5296
30.8953
31.3636
31.9279
32.5697
33.2575
33.9465
34.5824
35.1082
35.4732
35.6428
35.6066
35.3826
35.0151
34.5661
34.1027
33.6841
33.355
33.1482
33.0893
31.2695
30.8888
30.6111
30.4066
30.2496
30.1218
30.0133
29.9227
29.8562
29.826
29.8487
29.9433
30.1286
30.4201
30.8269
31.3484
31.9712
32.6636
33.3809
34.0656
34.654
35.086
35.3165
35.3253
35.1235
34.7531
34.2788
33.7733
33.3027
32.9167
32.65
32.5281
31.3301
30.8568
30.5295
30.2956
30.1125
29.9511
29.7957
29.6422
29.4967
29.3736
29.2936
29.2812
29.3619
29.559
29.8897
30.361
30.9669
31.6775
32.4499
33.223
33.9248
34.4821
34.8334
34.9415
34.8034
34.4532
33.9559
33.3925
32.8416
32.3659
32.0087
31.8011
31.1816
30.6204
30.2426
29.9713
29.7474
29.5322
29.3048
29.0595
28.803
28.5527
28.3338
28.1775
28.1176
28.1864
28.4111
28.8089
29.3835
30.1133
30.96
31.8612
32.7357
33.4935
34.0501
34.3418
34.3407
34.0634
33.5691
32.9471
32.2948
31.6975
31.2182
30.9018
30.7526
30.111
29.6832
29.3669
29.0872
28.7962
28.4688
28.0983
27.6926
27.2721
26.8677
26.5176
26.2651
26.1537
26.223
26.5034
27.0113
27.7422
28.6699
29.734
30.8455
31.8953
32.7684
33.3634
33.613
33.5007
33.0688
32.4103
31.6468
30.8991
30.2643
29.8104
29.9745
29.2621
28.7851
28.4158
28.0636
27.6724
27.2136
26.6794
26.0789
25.4359
24.7865
24.1771
23.6615
23.2968
23.1379
23.232
23.6123
24.3
25.2941
26.543
27.9536
29.397
30.7225
31.7786
32.4401
32.6365
32.373
31.735
30.8699
29.9481
29.1205
28.4946
28.7856
28.014
27.4882
27.0564
26.6132
26.095
25.4694
24.7276
23.8792
22.9509
21.9839
21.0331
20.1643
19.45
18.9646
18.7766
18.9409
19.5075
20.5231
21.9543
23.7113
25.6491
27.5785
29.2873
30.5727
31.2825
31.3554
30.8463
29.9215
28.814
27.7547
26.9139
27.1357
26.318
25.7434
25.2381
24.6835
24.0089
23.1781
22.18
21.0242
19.739
18.3702
16.9813
15.6508
14.4696
13.5348
12.9425
12.7768
13.1079
14.0609
15.6354
17.7559
20.27
22.953
25.5261
27.6912
29.1837
29.8359
29.6337
28.7404
27.4586
26.13
25.0223
24.9906
24.1414
23.5178
22.9273
22.24
21.3785
20.3023
18.9972
17.4711
15.7524
13.8907
11.9573
10.0445
8.26313
6.73713
5.59474
4.95629
4.91934
5.67975
7.31134
9.76609
12.8975
16.4563
20.0998
23.4242
26.0235
27.5765
27.9446
27.244
25.8371
24.2093
22.7743
22.3373
21.4722
20.7996
20.1126
19.2721
18.1946
16.8346
15.1738
13.2164
10.9895
8.54473
5.96034
3.34235
0.82294
-1.44451
-3.29498
-4.56636
-5.11938
-4.71893
-3.1655
-0.464472
3.26245
7.76072
12.6393
17.3909
21.4488
24.2911
25.5846
25.3262
23.901
21.9616
20.1322
19.1861
18.3217
17.6012
16.8087
15.7982
14.4807
12.8054
10.7482
8.30825
5.50917
2.40282
-0.926823
-4.36086
-7.74555
-10.8966
-13.6091
-15.6735
-16.8993
-17.0422
-15.7445
-12.9475
-8.72635
-3.31305
2.88173
9.2682
15.1185
19.6739
22.3291
22.8622
21.6031
19.3705
17.0759
15.5726
14.7254
13.9607
13.0584
11.8684
10.2969
8.28717
5.8084
2.85284
-0.561079
-4.38326
-8.52584
-12.8586
-17.2071
-21.3567
-25.0614
-28.0612
-30.1066
-30.9599
-30.1216
-27.4334
-22.9029
-16.7079
-9.23767
-1.12215
6.77606
13.4495
17.952
19.7213
18.907
16.4474
13.6176
11.5553
10.7416
9.93991
8.93123
7.56347
5.73893
3.3947
0.49208
-2.9849
-7.02477
-11.581
-16.564
-21.8341
-27.1987
-32.4146
-37.197
-41.2371
-44.228
-45.8982
-45.7223
-43.3801
-38.7956
-32.0636
-23.5034
-13.724
-3.66473
5.4436
12.2728
15.7947
15.805
13.2496
9.82087
7.21182
6.44644
5.61983
4.51858
2.99056
0.934294
-1.71973
-5.01897
-8.98882
-13.6262
-18.8899
-24.6902
-30.8807
-37.2534
-43.5402
-49.4218
-54.5453
-58.5514
-61.1105
-61.7448
-59.9785
-55.6328
-48.6968
-39.3734
-28.1772
-16.037
-4.33592
5.22169
11.0372
12.3458
9.90605
5.82728
2.63161
1.92691
1.0932
-0.0735897
-1.72489
-3.96663
-6.87608
-10.5106
-14.9061
-20.0691
-25.9648
-32.5053
-39.5393
-46.8466
-54.1386
-61.0672
-67.2429
-72.2613
-75.7377
-77.2487
-76.2364
-72.4133
-65.6483
-55.9926
-43.7947
-29.8659
-15.626
-3.08766
5.52618
8.67587
6.65362
1.89388
-2.09292
-2.72861
-3.5452
-4.73473
-6.4491
-8.80138
-11.8792
-15.7517
-20.4668
-26.0413
-32.4479
-39.6011
-47.3467
-55.4549
-63.6211
-71.4748
-78.5988
-84.5551
-88.9171
-91.2876
-91.1177
-88.0409
-81.7998
-72.2793
-59.6055
-44.364
-27.8634
-12.2909
-0.471869
5.09571
3.88848
-1.55246
-6.87688
-7.44106
-8.2093
-9.36034
-11.0509
-13.4073
-16.5326
-20.5113
-25.405
-31.2417
-38.0014
-45.6015
-53.8855
-62.6163
-71.477
-80.0808
-87.991
-94.7488
-99.9044
-103.047
-103.71
-101.497
-96.0455
-87.0771
-74.4692
-58.4933
-40.189
-21.7299
-6.43206
2.1336
2.24045
-3.83263
-11.654
-12.1521
-12.8328
-13.8623
-15.4117
-17.632
-20.6512
-24.5742
-29.479
-35.4048
-42.338
-50.1981
-58.8263
-67.9793
-77.3307
-86.4821
-94.9845
-102.367
-108.171
-111.972
-113.376
-112.012
-107.476
-99.3416
-87.2445
-71.0911
-51.5122
-30.4501
-11.5148
0.633141
2.6785
-3.89039
-16.3887
-16.8365
-17.3797
-18.1771
-19.4325
-21.3414
-24.0705
-27.7534
-32.4868
-38.3203
-45.2443
-53.1771
-61.9567
-71.3342
-80.9759
-90.4755
-99.3765
-107.202
-113.49
-117.819
-119.822
-119.185
-115.526
-108.313
-96.9703
-81.0344
-60.6281
-37.2473
-14.5357
1.84828
6.65363
-0.109989
-21.0905
-21.5157
-21.8542
-22.2718
-23.0376
-24.4227
-26.6528
-29.8986
-34.2779
-39.8472
-46.5979
-54.4457
-63.2201
-72.6627
-82.4309
-92.1114
-101.243
-109.347
-115.963
-120.675
-123.121
-123.02
-120.039
-113.617
-103.005
-87.3963
-66.3601
-40.7594
-13.9741
7.53038
16.276
9.93309
-25.8352
-26.2778
-26.3116
-26.1463
-26.1727
-26.7843
-28.2896
-30.9097
-34.7796
-39.9569
-46.4242
-54.0836
-62.7507
-72.1538
-81.9391
-91.6851
-100.926
-109.183
-115.997
-120.956
-123.702
-123.925
-121.273
-115.268
-105.076
-89.5381
-67.6798
-39.5749
-8.02463
19.9841
34.5081
29.7867
-30.8055
-31.3096
-30.8723
-29.8328
-28.7995
-28.3512
-28.9063
-30.729
-33.9647
-38.6605
-44.7781
-52.1961
-60.7081
-70.0239
-79.7755
-89.5321
-98.8229
-107.166
-114.101
-119.21
-122.132
-122.528
-119.946
-113.811
-103.254
-87.095
-63.7522
-32.3166
5.32208
42.0647
65.337
64.4887
-36.3782
-36.9601
-35.7454
-33.3944
-30.884
-29.0495
-28.4349
-29.3233
-31.8504
-36.0315
-41.7908
-48.971
-57.3352
-66.5697
-76.2898
-86.0538
-95.3842
-103.794
-110.812
-116.007
-118.992
-119.404
-116.668
-110.013
-98.3836
-80.2654
-53.8975
-17.6549
28.1987
77.0891
113.87
120.967
-43.3291
-43.8692
-41.2697
-36.9198
-32.386
-28.8095
-26.8338
-26.7106
-28.5216
-32.22
-37.6713
-44.6693
-52.9396
-62.1406
-71.8692
-81.6717
-91.0622
-99.5442
-106.632
-111.866
-114.812
-115.044
-111.939
-104.365
-90.9471
-69.7241
-38.2588
5.74033
62.8085
128.625
186.262
208.466
-53.3308
-53.2212
-47.9615
-40.4915
-33.2214
-27.546
-24.0822
-22.9533
-24.1198
-27.4327
-32.6778
-39.5891
-47.8492
-57.0872
-66.8809
-76.7648
-86.2437
-94.8091
-101.954
-107.179
-109.985
-109.841
-106.098
-97.1716
-81.2098
-55.6539
-17.178
37.7319
111.181
200.083
289.297
339.01
-70.197
-67.1486
-56.435
-43.9971
-33.1108
-25.0513
-20.0961
-18.0828
-18.7676
-21.8574
-27.0408
-33.9865
-42.3337
-51.6835
-61.5967
-71.597
-81.1805
-89.8259
-97.0012
-102.161
-104.725
-104.034
-99.2724
-88.5524
-69.2928
-38.2057
9.12227
77.8458
172.623
294.091
429.146
527.846
-102.998
-88.7226
-66.4806
-46.3155
-31.0436
-20.5987
-14.3933
-11.8241
-12.3414
-15.4741
-20.8073
-27.9484
-36.5005
-46.0442
-56.1289
-66.2727
-75.9662
-84.6769
-91.8474
-96.8818
-99.1097
-97.7185
-91.6436
-78.6742
-55.5366
-18.1511
39.1083
123.487
243.588
407.554
612.16
793.14
-172.632
-117.331
-72.7622
-42.5842
-23.3053
-11.608
-5.32879
-3.13948
-4.18562
-7.86738
-13.7141
-21.3103
-30.2508
-40.1161
-50.4599
-60.8054
-70.6456
-79.4429
-86.6195
-91.5331
-93.4245
-91.3224
-83.8864
-68.5265
-41.6482
1.50644
67.6533
166.29
311.454
525.706
842.192
1223.42
-344.874
-126.163
-49.3339
-17.507
-1.92825
6.02276
9.32876
9.25649
6.48499
1.46894
-5.42382
-13.849
-23.4526
-33.853
-44.6333
-55.339
-65.4785
-74.5203
-81.8806
-86.8929
-88.744
-86.3558
-78.1524
-61.5046
-32.7714
13.0938
83.3176
188.775
347.979
600.244
1051.65
1979.42
VECTORS velocity double
8.29589e-05 -8.29589e-05 0
0.000169006 -3.08795e-06 0
3.44202e-05 0.000137673 0
-0.000369788 0.000266535 0
-0.00100194 0.000365616 0
-0.0018056 0.000438049 0
-0.00273503 0.000491376 0
-0.00375725 0.000530845 0
-0.00484586 0.000557763 0
-0.0059737 0.000570081 0
-0.00710746 0.00056368 0
-0.00820484 0.000533692 0
-0.00921415 0.000475625 0
-0.0100761 0.00038631 0
-0.0107271 0.000264731 0
-0.0111046 0.000112752 0
-0.011153 -6.44063e-05 0
-0.0108304 -0.000258178 0
-0.0101177 -0.000454508 0
-0.0090276 -0.000635587 0
-0.00761031 -0.000781701 0
-0.00595475 -0.000873856 0
-0.00418387 -0.000897026 0
-0.00244331 -0.000843532 0
-0.000884029 -0.00071575 0
0.000359026 -0.000527305 0
0.00118867 -0.000302338 0
0.00156233 -7.13262e-05 0
0.00150304 0.000130616 0
0.0011078 0.000264621 0
0.000559471 0.000283712 0
0.00013788 0.00013788 0
-4.49439e-07 -0.000165468 0
-0.000249687 0.000242612 0
-0.00105736 0.000834235 0
-0.00245912 0.00137594 0
-0.00437381 0.00180305 0
-0.00669123 0.0021217 0
-0.0093092 0.00235513 0
-0.0121396 0.00251974 0
-0.0151005 0.00261837 0
-0.0181052 0.00264198 0
-0.0210542 0.00257453 0
-0.023832 0.00239807 0
-0.0263087 0.00209724 0
-0.028345 0.00166296 0
-0.0298014 0.00109554 0
-0.0305491 0.000407052 0
-0.0304823 -0.000377103 0
-0.0295333 -0.00121712 0
-0.027686 -0.00205552 0
-0.0249887 -0.00282195 0
-0.0215616 -0.00343978 0
-0.0175974 -0.00383549 0
-0.0133535 -0.00395017 0
-0.00913262 -0.00375186 0
-0.00525299 -0.00324633 0
-0.00200968 -0.0024831 0
0.000368861 -0.00155472 0
0.00176334 -0.000587085 0
0.00219497 0.000274033 0
0.00184146 0.00086995 0
0.00104056 0.00102761 0
0.000290187 0.000565946 0
-0.000181372 1.63529e-05 0
-0.00100607 0.00113472 0
-0.00274416 0.00248789 0
-0.00532061 0.00370049 0
-0.00859145 0.00466403 0
-0.0124019 0.00538857 0
-0.0166091 0.00591339 0
-0.0210816 0.00626448 0
-0.0256896 0.00644243 0
-0.0302932 0.00642621 0
-0.0347369 0.006183 0
-0.0388482 0.00567878 0
-0.0424425 0.00488747 0
-0.0453316 0.00379819 0
-0.0473358 0.00242089 0
-0.0482969 0.00079049 0
-0.0480935 -0.00103067 0
-0.0466555 -0.00295068 0
-0.0439771 -0.00484754 0
-0.040129 -0.00657534 0
-0.0352661 -0.00797643 0
-0.0296305 -0.00889864 0
-0.0235445 -0.00921688 0
-0.0173932 -0.0088573 0
-0.0115934 -0.0078204 0
-0.00654812 -0.00619759 0
-0.00259204 -0.00417484 0
6.69809e-05 -0.00202046 0
0.00139956 -5.68059e-05 0
0.00158666 0.0013672 0
0.0010214 0.00189653 0
0.000306338 0.00116247 0
-0.000400273 0.000597997 0
-0.00191239 0.00288989 0
-0.00472501 0.00528343 0
-0.00859024 0.00734664 0
-0.0132718 0.00897026 0
-0.018564 0.010185 0
-0.0242888 0.0110488 0
-0.0302807 0.0115936 0
-0.0363724 0.0118129 0
-0.0423836 0.0116705 0
-0.0481171 0.011116 0
-0.0533619 0.0101019 0
-0.0578998 0.00859654 0
-0.0615164 0.00659477 0
-0.0640132 0.00412526 0
-0.0652213 0.00125538 0
-0.0650142 -0.00190597 0
-0.0633196 -0.00520814 0
-0.0601286 -0.00845932 0
-0.0555092 -0.0114311 0
-0.0496173 -0.0138754 0
-0.0427044 -0.0155483 0
-0.0351164 -0.0162412 0
-0.0272826 -0.0158181 0
-0.0196879 -0.0142542 0
-0.0128281 -0.0116688 0
-0.00714627 -0.00834145 0
-0.00295873 -0.00470041 0
-0.000384845 -0.00128332 0
0.000702664 0.0013191 0
0.000696846 0.0025157 0
0.000243198 0.00171201 0
-0.000633835 0.00163211 0
-0.00287969 0.00561376 0
-0.00682837 0.00932085 0
-0.0120276 0.0123737 0
-0.0181304 0.0147276 0
-0.0248749 0.0164644 0
-0.0320502 0.0176695 0
-0.0394654 0.01838 0
-0.0469269 0.0185797 0
-0.0542278 0.0182157 0
-0.0611455 0.0172221 0
-0.0674469 0.015542 0
-0.0728964 0.0131438 0
-0.0772668 0.0100344 0
-0.0803508 0.00626642 0
-0.0819718 0.00194329 0
-0.0819942 -0.00277855 0
-0.08033 -0.00769443 0
-0.0769467 -0.0125472 0
-0.0718831 -0.0170263 0
-0.065267 -0.0207882 0
-0.0573297 -0.0234857 0
-0.0484136 -0.0248076 0
-0.0389703 -0.0245288 0
-0.0295409 -0.0225676 0
-0.0207149 -0.0190413 0
-0.0130613 -0.0143044 0
-0.00703783 -0.00894846 0
-0.00289467 -0.00375232 0
-0.000599812 0.000405728 0
0.000195673 0.00263941 0
0.000141209 0.00209641 0
-0.000870123 0.00313606 0
-0.00385522 0.00934076 0
-0.00893956 0.0146269 0
-0.0154568 0.0187841 0
-0.0229444 0.0219076 0
-0.031084 0.0241685 0
-0.0396367 0.0256935 0
-0.0483937 0.0265282 0
-0.0571468 0.0266462 0
-0.0656757 0.0259789 0
-0.0737464 0.0244473 0
-0.0811162 0.0219881 0
-0.0875424 0.0185734 0
-0.092791 0.0142238 0
-0.0966456 0.00901568 0
-0.0989162 0.00308556 0
-0.0994462 -0.00336852 0
-0.0981166 -0.0100983 0
-0.0948519 -0.0167913 0
-0.0896398 -0.023058 0
-0.0825567 -0.0284558 0
-0.0737902 -0.032522 0
-0.063657 -0.0348205 0
-0.0526123 -0.035004 0
-0.0412429 -0.0328912 0
-0.0302346 -0.028552 0
-0.0203037 -0.0223783 0
-0.0120898 -0.0151119 0
-0.00602676 -0.0077951 0
-0.00222696 -0.00164615 0
-0.000422563 0.0020914 0
1.93512e-05 0.00225697 0
-0.00109943 0.00510562 0
-0.00479653 0.0140534 0
-0.0109657 0.0211678 0
-0.0187326 0.0265273 0
-0.0275249 0.0304444 0
-0.0369732 0.0332196 0
-0.0468166 0.0350385 0
-0.0568371 0.0359606 0
-0.0668218 0.0359516 0
-0.0765481 0.0349287 0
-0.0857811 0.0328011 0
-0.0942773 0.0295003 0
-0.101791 0.0250015 0
-0.108082 0.0193355 0
-0.11292 0.0125968 0
-0.116093 0.0049471 0
-0.117409 -0.00338395 0
-0.116707 -0.0121141 0
-0.113857 -0.0208899 0
-0.108781 -0.0292481 0
-0.101485 -0.0366447 0
-0.0920933 -0.0424911 0
-0.080874 -0.0462039 0
-0.0682622 -0.047277 0
-0.0548714 -0.0453784 0
-0.0414766 -0.0404678 0
-0.0289551 -0.0329149 0
-0.0181694 -0.0235748 0
-0.00980044 -0.0137642 0
-0.00417312 -0.00510418 0
-0.00114756 0.000719474 0
-0.000118451 0.00215787 0
-0.0013116 0.00751664 0
-0.00566255 0.0196904 0
-0.0128212 0.0288586 0
-0.0217236 0.0355057 0
-0.0317005 0.0402352 0
-0.0423401 0.0435165 0
-0.0533669 0.0456118 0
-0.0645611 0.0466019 0
-0.0757136 0.0464476 0
-0.0866079 0.0450534 0
-0.0970151 0.0423165 0
-0.106696 0.0381616 0
-0.115403 0.0325615 0
-0.122887 0.0255505 0
-0.128899 0.0172316 0
-0.133195 0.00778058 0
-0.135544 -0.00255234 0
-0.135736 -0.0134558 0
-0.133581 -0.024553 0
-0.128927 -0.0353149 0
-0.121702 -0.0450989 0
-0.111946 -0.0531845 0
-0.0998522 -0.0588235 0
-0.0858052 -0.0613162 0
-0.070412 -0.0601233 0
-0.0545121 -0.0550177 0
-0.0391396 -0.0462591 0
-0.0254108 -0.0347452 0
-0.0143223 -0.0220512 0
-0.00650052 -0.0102662 0
-0.00200284 -0.0016417 0
-0.000276164 0.00176326 0
-0.00149575 0.010324 0
-0.00641174 0.02615 0
-0.0144233 0.0375693 0
-0.0243054 0.0455794 0
-0.0353086 0.0511417 0
-0.0469885 0.0549296 0
-0.0590618 0.0572989 0
-0.0713127 0.0583598 0
-0.083542 0.0580716 0
-0.095545 0.0563267 0
-0.107103 0.0530087 0
-0.117984 0.0480303 0
-0.127938 0.0413549 0
-0.136708 0.0330103 0
-0.144021 0.0230967 0
-0.149602 0.0117927 0
-0.153176 -0.000640957 0
-0.154486 -0.013866 0
-0.153285 -0.0274981 0
-0.149352 -0.0409566 0
-0.142525 -0.0535097 0
-0.132746 -0.0643085 0
-0.120107 -0.072432 0
-0.104903 -0.0769594 0
-0.0876858 -0.07709 0
-0.0693142 -0.0723225 0
-0.0509488 -0.062692 0
-0.033967 -0.049023 0
-0.0197434 -0.0330855 0
-0.00931282 -0.0174844 0
-0.00303644 -0.00519762 0
-0.000465514 0.00102158 0
-0.00164084 0.0134606 0
-0.00700344 0.033292 0
-0.015693 0.0471285 0
-0.0263603 0.0565695 0
-0.0381944 0.062989 0
-0.0507268 0.0672946 0
-0.0636711 0.0699515 0
-0.0768196 0.0711065 0
-0.0899868 0.0707213 0
-0.102983 0.068676 0
-0.115603 0.0648374 0
-0.127621 0.0591005 0
-0.138792 0.0514107 0
-0.148847 0.0417789 0
-0.157498 0.0302916 0
-0.164439 0.0171202 0
-0.169361 0.00252768 0
-0.17196 -0.0131264 0
-0.171943 -0.0294542 0
-0.169029 -0.0458481 0
-0.162969 -0.061506 0
-0.153594 -0.0754658 0
-0.140868 -0.0866395 0
-0.124952 -0.0938723 0
-0.106289 -0.0960574 0
-0.0856847 -0.0923307 0
-0.0643674 -0.0823664 0
-0.0439476 -0.0667502 0
-0.026217 -0.0473126 0
-0.0127338 -0.0271711 0
-0.00431048 -0.0102107 0
-0.000701428 -0.000145366 0
-0.00173666 0.0168381 0
-0.00740055 0.040941 0
-0.0165591 0.0573277 0
-0.0277821 0.0682606 0
-0.0402157 0.0755656 0
-0.0533738 0.0804085 0
-0.0669692 0.0833774 0
-0.0808038 0.0846637 0
-0.0947069 0.0842345 0
-0.108506 0.0819575 0
-0.12201 0.0776801 0
-0.135007 0.0712734 0
-0.147255 0.0626573 0
-0.158485 0.0518173 0
-0.168399 0.0388173 0
-0.176675 0.0238121 0
-0.182977 0.0070593 0
-0.186965 -0.0110714 0
-0.188316 -0.0301747 0
-0.186704 -0.0496535 0
-0.181801 -0.0686641 0
-0.173324 -0.0861599 0
-0.161086 -0.100909 0
-0.145074 -0.11153 0
-0.125554 -0.116584 0
-0.103197 -0.114765 0
-0.079207 -0.10524 0
-0.0553572 -0.0881459 0
-0.0338534 -0.0651512 0
-0.016882 -0.039787 0
-0.00589143 -0.0170085 0
-0.00100059 -0.00184739 0
-0.00177488 0.0203496 0
-0.00757298 0.0488914 0
-0.0169636 0.0679265 0
-0.0284831 0.0804044 0
-0.0412522 0.0886244 0
-0.0547715 0.094027 0
-0.0687525 0.0973353 0
-0.0830054 0.0987932 0
-0.0973741 0.0983769 0
-0.111703 0.0959428 0
-0.12582 0.0913165 0
-0.139528 0.0843416 0
-0.152598 0.0749076 0
-0.16477 0.0629687 0
-0.17575 0.0485597 0
-0.185216 0.0318123 0
-0.192825 0.0129699 0
-0.198219 -0.00760068 0
-0.201057 -0.0294563 0
-0.20099 -0.0520504 0
-0.197626 -0.0745344 0
-0.190573 -0.0958202 0
-0.179484 -0.114576 0
-0.164135 -0.129224 0
-0.14455 -0.137994 0
-0.121174 -0.139086 0
-0.0950642 -0.131019 0
-0.0680458 -0.113236 0
-0.04268 -0.0869311 0
-0.0218476 -0.0558109 0
-0.00784197 -0.0259808 0
-0.00137998 -0.00422796 0
-0.00175024 0.0238747 0
-0.00750126 0.0569154 0
-0.0168678 0.0786596 0
-0.028403 0.092726 0
-0.0412181 0.101887 0
-0.0548021 0.107867 0
-0.0688624 0.111536 0
-0.0832145 0.113197 0
-0.097715 0.112842 0
-0.112226 0.110317 0
-0.126595 0.105428 0
-0.140645 0.0979884 0
-0.154171 0.0878566 0
-0.166933 0.0749534 0
-0.17866 0.0592821 0
-0.189051 0.0409469 0
-0.197776 0.0201699 0
-0.20449 -0.00269402 0
-0.208849 -0.0271652 0
-0.210494 -0.0527635 0
-0.209 -0.0786801 0
-0.203884 -0.103843 0
-0.194642 -0.126885 0
-0.180814 -0.146092 0
-0.162126 -0.159398 0
-0.138697 -0.164487 0
-0.111309 -0.159116 0
-0.0816814 -0.141784 0
-0.05261 -0.11282 0
-0.0276738 -0.0756909 0
-0.0102149 -0.0375654 0
-0.00185617 -0.0074641 0
-0.00166146 0.0272864 0
-0.00717989 0.0647732 0
-0.0162588 0.0892474 0
-0.0275178 0.104932 0
-0.0400741 0.115052 0
-0.0534049 0.121617 0
-0.0672088 0.125651 0
-0.0813022 0.127528 0
-0.0955517 0.127261 0
-0.109836 0.124693 0
-0.124025 0.11961 0
-0.13797 0.111801 0
-0.151496 0.101095 0
-0.164399 0.0873808 0
-0.176449 0.0706323 0
-0.187387 0.0509251 0
-0.196926 0.0284567 0
-0.204756 0.00356257 0
-0.21055 -0.0232689 0
-0.213962 -0.0516029 0
-0.214573 -0.0807238 0
-0.211843 -0.109645 0
-0.205121 -0.137047 0
-0.193707 -0.161171 0
-0.176987 -0.179727 0
-0.154666 -0.189908 0
-0.127109 -0.188641 0
-0.0957476 -0.173248 0
-0.0634266 -0.142749 0
-0.034342 -0.0997829 0
-0.0130477 -0.0522266 0
-0.00244452 -0.0117648 0
-0.00151204 0.0304599 0
-0.00661989 0.072226 0
-0.0151541 0.0994078 0
-0.0258476 0.116724 0
-0.0378383 0.127807 0
-0.0505905 0.134945 0
-0.0637893 0.139325 0
-0.0772463 0.141404 0
-0.090835 0.141224 0
-0.104451 0.138631 0
-0.117988 0.133399 0
-0.13133 0.125299 0
-0.144342 0.114134 0
-0.156869 0.0997716 0
-0.168737 0.0821596 0
-0.179751 0.0613498 0
-0.189693 0.0375133 0
-0.198313 0.0109569 0
-0.205324 -0.0178591 0
-0.210427 -0.0484974 0
-0.21325 -0.080395 0
-0.21323 -0.112724 0
-0.209608 -0.144312 0
-0.201459 -0.17347 0
-0.187808 -0.197799 0
-0.167877 -0.214087 0
-0.141482 -0.218415 0
-0.109566 -0.206751 0
-0.0747811 -0.176352 0
-0.041763 -0.128282 0
-0.0163586 -0.0704259 0
-0.00315898 -0.0173683 0
-0.00131049 0.0332825 0
-0.00585014 0.0790509 0
-0.0136046 0.108871 0
-0.0234613 0.127811 0
-0.0345925 0.139843 0
-0.0464502 0.14752 0
-0.0587001 0.1522 0
-0.071145 0.154432 0
-0.0836625 0.154302 0
-0.0961639 0.15167 0
-0.108571 0.146305 0
-0.120802 0.137967 0
-0.13277 0.126446 0
-0.144375 0.111593 0
-0.155513 0.0933438 0
-0.166066 0.0717334 0
-0.175906 0.046911 0
-0.184875 0.0191491 0
-0.192768 -0.0111472 0
-0.19936 -0.0435147 0
-0.204342 -0.0775731 0
-0.207186 -0.112722 0
-0.207079 -0.148043 0
-0.202913 -0.182055 0
-0.193365 -0.212413 0
-0.177136 -0.235633 0
-0.153377 -0.247023 0
-0.122342 -0.241093 0
-0.0862094 -0.212927 0
-0.0497769 -0.161158 0
-0.0201454 -0.0925864 0
-0.00401275 -0.02454 0
-0.00107021 0.0356632 0
-0.00491744 0.0850571 0
-0.0116955 0.117398 0
-0.0204782 0.137924 0
-0.0304854 0.150868 0
-0.0411576 0.159024 0
-0.0521387 0.163926 0
-0.0632192 0.16623 0
-0.074279 0.166081 0
-0.0852466 0.16336 0
-0.0960724 0.157847 0
-0.106715 0.149299 0
-0.117137 0.137502 0
-0.1273 0.122305 0
-0.137171 0.103641 0
-0.146722 0.0815404 0
-0.155921 0.0561432 0
-0.164729 0.0276935 0
-0.173066 -0.00346098 0
-0.180799 -0.036876 0
-0.187707 -0.0723224 0
-0.193353 -0.109482 0
-0.196944 -0.147798 0
-0.197257 -0.186154 0
-0.192671 -0.222448 0
-0.181367 -0.253131 0
-0.161759 -0.272892 0
-0.133224 -0.274793 0
-0.0971607 -0.251423 0
-0.0581608 -0.198094 0
-0.0243883 -0.119054 0
-0.00502052 -0.0335733 0
-0.000808938 0.0375423 0
-0.00388541 0.0901016 0
-0.00954573 0.124792 0
-0.0170675 0.146835 0
-0.0257294 0.160626 0
-0.0349649 0.169174 0
-0.0443958 0.174189 0
-0.0537997 0.176452 0
-0.0630602 0.176179 0
-0.0721246 0.173293 0
-0.0809759 0.167591 0
-0.0896163 0.158838 0
-0.0980601 0.146828 0
-0.106333 0.131416 0
-0.114474 0.112543 0
-0.12254 0.0902534 0
-0.130601 0.0646914 0
-0.138739 0.0360905 0
-0.147013 0.00475274 0
-0.155411 -0.0289584 0
-0.163833 -0.0649106 0
-0.171985 -0.103096 0
-0.17917 -0.143408 0
-0.18415 -0.185252 0
-0.185099 -0.226987 0
-0.179733 -0.265261 0
-0.165704 -0.2944 0
-0.141367 -0.306157 0
-0.107035 -0.290455 0
-0.0666436 -0.238454 0
-0.0290576 -0.150053 0
-0.00620298 -0.0447968 0
-0.000548038 0.0388993 0
-0.00283273 0.0941058 0
-0.00730529 0.13092 0
-0.013445 0.154367 0
-0.0205967 0.168907 0
-0.0281937 0.177725 0
-0.0358409 0.182715 0
-0.0433068 0.184795 0
-0.0504824 0.184272 0
-0.0573393 0.181122 0
-0.0638975 0.175172 0
-0.0702067 0.166207 0
-0.0763374 0.154034 0
-0.0823778 0.138523 0
-0.0884363 0.119635 0
-0.0946456 0.0974358 0
-0.101167 0.0720923 0
-0.108188 0.0438486 0
-0.115899 0.0129791 0
-0.12443 -0.0202566 0
-0.133828 -0.0557921 0
-0.143973 -0.0939171 0
-0.154345 -0.135029 0
-0.16381 -0.179187 0
-0.170477 -0.225437 0
-0.171719 -0.270935 0
-0.164474 -0.309999 0
-0.145994 -0.333374 0
-0.115218 -0.328346 0
-0.0749233 -0.281249 0
-0.0341249 -0.185642 0
-0.00759348 -0.0585933 0
-0.000311928 0.0397593 0
-0.00185189 0.0970705 0
-0.00515388 0.13573 0
-0.00986999 0.160413 0
-0.015412 0.175555 0
-0.0212236 0.184486 0
-0.0269038 0.189282 0
-0.0322222 0.191013 0
-0.0370861 0.190094 0
-0.0414987 0.186569 0
-0.0455239 0.180308 0
-0.0492642 0.171121 0
-0.0528492 0.158836 0
-0.0564304 0.143343 0
-0.0601817 0.124625 0
-0.0643023 0.102776 0
-0.0690225 0.0779942 0
-0.0746075 0.0505528 0
-0.0813485 0.0207268 0
-0.0895202 -0.0113023 0
-0.0993181 -0.0455503 0
-0.110793 -0.0825392 0
-0.123665 -0.123162 0
-0.137038 -0.168216 0
-0.149139 -0.21764 0
-0.157194 -0.269437 0
-0.157573 -0.318363 0
-0.146429 -0.354635 0
-0.121104 -0.363187 0
-0.0826761 -0.32513 0
-0.0395725 -0.225663 0
-0.00924479 -0.0754315 0
-0.000128268 0.0401995 0
-0.00104996 0.0990919 0
-0.0033017 0.139263 0
-0.00664474 0.16494 0
-0.0105478 0.180473 0
-0.0144797 0.189311 0
-0.0180542 0.193711 0
-0.0210602 0.194908 0
-0.0234361 0.193439 0
-0.0252278 0.189429 0
-0.0265514 0.182797 0
-0.0275672 0.173388 0
-0.0284673 0.161054 0
-0.029468 0.145707 0
-0.0308068 0.127351 0
-0.0327426 0.106106 0
-0.0355586 0.0822002 0
-0.0395672 0.0559404 0
-0.045114 0.0276271 0
-0.052565 -0.00257986 0
-0.0622314 -0.0348083 0
-0.0743176 -0.0697205 0
-0.0888053 -0.10862 0
-0.105148 -0.153042 0
-0.121903 -0.203958 0
-0.136417 -0.26055 0
-0.144755 -0.318533 0
-0.142107 -0.368257 0
-0.124087 -0.39291 0
-0.0895446 -0.368378 0
-0.045391 -0.269672 0
-0.0112322 -0.0959085 0
-2.99181e-05 0.0403577 0
-0.000554246 0.10038 0
-0.00199627 0.141668 0
-0.00411754 0.167999 0
-0.00642064 0.183621 0
-0.00842144 0.192096 0
-0.00978148 0.195861 0
-0.010338 0.196321 0
-0.0100826 0.194146 0
-0.00912018 0.189551 0
-0.00762815 0.182507 0
-0.00582979 0.172895 0
-0.00398191 0.160598 0
-0.00236657 0.145548 0
-0.00128427 0.127767 0
-0.00105023 0.107392 0
-0.00199158 0.0846713 0
-0.00444614 0.0599325 0
-0.00876538 0.0335011 0
-0.0153204 0.00555216 0
-0.0244715 -0.0241229 0
-0.0365229 -0.0562685 0
-0.0516765 -0.0924309 0
-0.0697954 -0.13477 0
-0.0899649 -0.185306 0
-0.109984 -0.244668 0
-0.125992 -0.310068 0
-0.132529 -0.372832 0
-0.123515 -0.415369 0
-0.0950896 -0.408887 0
-0.0515507 -0.316856 0
-0.013647 -0.120788 0
-6.04113e-05 0.040448 0
-0.000527113 0.10128 0
-0.00153955 0.143222 0
-0.00269323 0.16972 0
-0.00349057 0.185 0
-0.00352927 0.192757 0
-0.00256945 0.195601 0
-0.000539604 0.195108 0
0.00248381 0.192081 0
0.00631691 0.186821 0
0.0107077 0.179354 0
0.0153601 0.169597 0
0.0199491 0.157459 0
0.02413 0.14289 0
0.0275448 0.125927 0
0.0298307 0.106712 0
0.0306297 0.0854938 0
0.0295987 0.0625956 0
0.0264176 0.0383383 0
0.0207862 0.0129014 0
0.0123885 -0.0139233 0
0.000890901 -0.0429191 0
-0.0140563 -0.0756795 0
-0.0326775 -0.114781 0
-0.0546982 -0.163104 0
-0.0786975 -0.222851 0
-0.101386 -0.293188 0
-0.11718 -0.367381 0
-0.11858 -0.428434 0
-0.0986852 -0.444141 0
-0.0579299 -0.365895 0
-0.0165735 -0.151008 0
-0.00028611 0.0407945 0
-0.00119669 0.102311 0
-0.00232015 0.144327 0
-0.0028505 0.170299 0
-0.00225751 0.184625 0
-0.000281058 0.191193 0
0.0031479 0.192775 0
0.00794127 0.19111 0
0.013886 0.18711 0
0.0206975 0.181147 0
0.0280428 0.173292 0
0.0355567 0.163493 0
0.0428534 0.151678 0
0.0495348 0.13781 0
0.0551981 0.12193 0
0.0594468 0.104175 0
0.061905 0.084774 0
0.0622336 0.0640178 0
0.0601431 0.0421877 0
0.0553936 0.019433 0
0.0477637 -0.00442724 0
0.0370153 -0.0301692 0
0.0228644 -0.0593312 0
0.00489151 -0.0945352 0
-0.0173173 -0.13912 0
-0.043358 -0.196795 0
-0.0710365 -0.268877 0
-0.0954008 -0.351534 0
-0.108164 -0.430118 0
-0.0993411 -0.471175 0
-0.0641799 -0.414778 0
-0.0200402 -0.187622 0
-0.000820314 0.0419009 0
-0.0029119 0.104207 0
-0.00486154 0.145505 0
-0.00515756 0.169948 0
-0.00324368 0.18247 0
0.000885991 0.187243 0
0.00700602 0.187176 0
0.0147863 0.184135 0
0.0238391 0.179088 0
0.0337584 0.172439 0
0.0441274 0.164285 0
0.0545206 0.154592 0
0.0645064 0.143296 0
0.073652 0.130364 0
0.0815303 0.115833 0
0.0877328 0.09982 0
0.0918851 0.082518 0
0.0936658 0.0641645 0
0.0928201 0.0449772 0
0.0891621 0.025051 0
0.0825487 0.00419802 0
0.0728065 -0.0183039 0
0.0596786 -0.0439177 0
0.0427783 -0.0750757 0
0.0215964 -0.115189 0
-0.00443107 -0.168658 0
-0.0348414 -0.238925 0
-0.0662294 -0.325733 0
-0.0906217 -0.418763 0
-0.0954312 -0.486544 0
-0.0694962 -0.460505 0
-0.0239341 -0.231596 0
-0.00186648 0.0445877 0
-0.00622483 0.10797 0
-0.00986441 0.147331 0
-0.0102441 0.168797 0
-0.00691304 0.178375 0
-0.000322961 0.180618 0
0.00884931 0.178509 0
0.0199428 0.173928 0
0.0323606 0.167824 0
0.0455674 0.160577 0
0.0590718 0.152274 0
0.0724064 0.142876 0
0.0851174 0.132316 0
0.0967628 0.120554 0
0.106918 0.10761 0
0.115187 0.0935716 0
0.121218 0.0785827 0
0.124722 0.0628155 0
0.125481 0.0464128 0
0.123352 0.0294026 0
0.118239 0.0115724 0
0.110028 -0.00772483 0
0.0984763 -0.0298172 0
0.083173 -0.0569725 0
0.0635064 -0.0924438 0
0.0386303 -0.1405 0
0.00778026 -0.205823 0
-0.0282303 -0.291437 0
-0.0635421 -0.393355 0
-0.0843181 -0.486366 0
-0.0722518 -0.498684 0
-0.0278504 -0.283381 0
-0.00378344 0.0502377 0
-0.011968 0.114863 0
-0.0181396 0.150249 0
-0.0185711 0.16669 0
-0.0133226 0.171902 0
-0.00363335 0.170811 0
0.00919637 0.166314 0
0.0241032 0.160123 0
0.0402662 0.153048 0
0.0570394 0.145372 0
0.0738847 0.137129 0
0.0903236 0.128248 0
0.105911 0.118645 0
0.120228 0.108263 0
0.132878 0.0970955 0
0.143505 0.0851906 0
0.151799 0.0726386 0
0.157512 0.0595433 0
0.160464 0.0459736 0
0.160542 0.0318935 0
0.157671 0.0170648 0
0.15176 0.000904795 0
0.14257 -0.0177051 0
0.129641 -0.0408526 0
0.112225 -0.0714809 0
0.0891655 -0.113528 0
0.0590032 -0.171783 0
0.0207347 -0.251198 0
-0.0235318 -0.354016 0
-0.0618717 -0.466589 0
-0.0694106 -0.522989 0
-0.0308287 -0.34206 0
-0.00713988 0.061161 0
-0.0211474 0.126132 0
-0.0300667 0.154071 0
-0.0295271 0.16276 0
-0.0209902 0.162047 0
-0.00693144 0.156918 0
0.010592 0.149854 0
0.0301125 0.142156 0
0.0506289 0.134335 0
0.0714435 0.126497 0
0.0920238 0.118578 0
0.111924 0.110459 0
0.130746 0.102024 0
0.148122 0.093191 0
0.163717 0.0839222 0
0.17723 0.0742244 0
0.188406 0.0641351 0
0.197043 0.0536966 0
0.202995 0.0429165 0
0.206156 0.0317116 0
0.206441 0.0198321 0
0.203731 0.00675875 0
0.197801 -0.00843861 0
0.188139 -0.0275286 0
0.173791 -0.0530403 0
0.153256 -0.0883747 0
0.124431 -0.137949 0
0.0849675 -0.2073 0
0.0339336 -0.302613 0
-0.0219257 -0.423793 0
-0.0555656 -0.524607 0
-0.0308504 -0.403739 0
-0.0125459 0.0808467 0
-0.033901 0.141809 0
-0.0433355 0.156748 0
-0.0383752 0.154583 0
-0.0234079 0.14672 0
-0.00253593 0.137315 0
0.0214762 0.127921 0
0.0469213 0.119123 0
0.0727884 0.110985 0
0.0984425 0.103379 0
0.123436 0.0961229 0
0.147412 0.0890382 0
0.170059 0.0819755 0
0.191096 0.0748261 0
0.210265 0.0675238 0
0.227336 0.0600389 0
0.242115 0.0523656 0
0.254444 0.0445002 0
0.264195 0.0364098 0
0.271262 0.0279896 0
0.275527 0.0190044 0
0.276815 0.00900836 0
0.274832 -0.0027748 0
0.268986 -0.0176845 0
0.258148 -0.0376983 0
0.240463 -0.0654974 0
0.213223 -0.104761 0
0.172961 -0.160761 0
0.116347 -0.241504 0
0.0442915 -0.356988 0
-0.0213169 -0.492163 0
-0.0238126 -0.458402 0
-0.019148 0.112541 0