# vtk DataFile Version 2.0
Lid-driven cavity
ASCII
DATASET STRUCTURED_POINTS
DIMENSIONS 32 32 1
ORIGIN 0.015625 0.015625 0
SPACING 0.03125 0.03125 1
POINT_DATA 1024
SCALARS pressure double 1
LOOKUP_TABLE default
21.623
21.5198
21.3536
21.1827
21.0402
20.942
20.895
20.9034
20.9721
21.1074
21.3164
21.6058
21.9797
22.4384
22.976
23.579
24.2264
24.8895
25.5319
26.1122
26.5895
26.9286
27.1064
27.1166
26.972
26.7038
26.3572
25.985
25.6419
25.3769
25.2283
25.2092
21.7263
21.619
21.4828
21.3499
21.2411
21.1678
21.1365
21.1521
21.2198
21.3459
21.5373
21.8
22.1384
22.5527
23.038
23.5828
24.1681
24.7688
25.3518
25.8794
26.3141
26.6243
26.7894
26.8048
26.6835
26.4549
26.1607
25.8466
25.5582
25.3345
25.2055
25.1899
21.8981
21.7468
21.6058
21.4864
21.3957
21.3373
21.3139
21.3288
21.3872
21.4954
21.6609
21.8909
22.1909
22.5632
23.005
23.5073
24.0535
24.6202
25.1756
25.6825
26.1033
26.4055
26.5681
26.5857
26.4712
26.2541
25.9754
25.68
25.4087
25.1958
25.0673
25.0433
22.0727
21.8606
21.6965
21.5744
21.4882
21.433
21.4067
21.4104
21.4483
21.5277
21.6571
21.846
22.1024
22.4317
22.8347
23.3054
23.8299
24.3851
24.9392
25.4535
25.8878
26.2059
26.3828
26.41
26.2988
26.0788
25.7924
25.4861
25.202
24.9729
24.823
24.7712
22.193
21.9154
21.7197
21.5844
21.4912
21.4271
21.3851
21.364
21.3677
21.4042
21.4843
21.6202
21.8239
22.1049
22.4683
22.9123
23.4263
23.987
24.5625
25.1118
25.5899
25.9543
26.1726
26.2297
26.1323
25.9084
25.6025
25.2652
24.9433
24.6731
24.4803
24.3838
22.2067
21.8644
21.6342
21.4789
21.3686
21.2831
21.211
21.1492
21.1018
21.0779
21.0912
21.1576
21.2937
21.5141
21.8295
22.2434
22.7502
23.3274
23.9438
24.5562
25.1137
25.5645
25.865
25.9886
25.9322
25.7191
25.394
25.0135
24.6334
24.2988
24.0419
23.8854
22.0639
21.6606
21.3954
21.215
21.0782
20.9581
20.8398
20.719
20.5999
20.4937
20.4172
20.3905
20.4358
20.5741
20.8227
21.1921
21.6835
22.2794
22.9514
23.6552
24.3333
24.9224
25.3629
25.6099
25.6437
25.4757
25.1475
24.7218
24.2677
23.8461
23.5026
23.27
21.7157
21.2567
20.9572
20.7469
20.574
20.4052
20.2227
20.0212
19.8058
19.5895
19.3926
19.2402
19.1608
19.1828
19.332
19.6282
20.0812
20.6848
21.4183
22.2385
23.0824
23.8732
24.5303
24.9827
25.1837
25.1226
24.83
24.3722
23.8354
23.3054
22.8514
22.5223
21.1158
20.6076
20.2745
20.0292
19.8095
19.5761
19.3088
19.0016
18.6598
18.2988
17.9421
17.6203
17.3687
17.2251
17.2257
17.4018
17.7751
18.357
19.1428
20.0956
21.1494
22.2135
23.1821
23.9494
24.4287
24.5723
24.3864
23.9332
23.3179
22.661
22.069
21.618
20.2222
19.6724
19.3061
19.0197
18.7409
18.4253
18.0498
17.6074
17.1038
16.5557
15.9901
15.4429
14.9574
14.5819
14.3658
14.3553
14.5872
15.0932
15.9006
16.9852
18.2834
19.6929
21.0808
22.2982
23.2042
23.6948
23.7306
23.3544
22.6863
21.8914
21.1318
20.5271
19.0001
18.4175
18.0179
17.6832
17.3317
16.914
16.4043
15.7938
15.0875
14.3032
13.4705
12.6305
11.8353
11.1452
10.6256
10.3413
10.3503
10.6994
11.4686
12.658
14.2143
16.0298
17.946
19.7662
21.2819
22.3098
22.7369
22.5598
21.8988
20.9698
20.0129
19.2155
17.4256
16.8197
16.3866
15.9955
15.5566
15.0159
14.3441
13.5301
12.5773
11.5029
10.3385
9.13023
7.93888
6.83837
5.91239
5.24854
4.93003
5.02521
5.66199
6.89462
8.69
10.9447
13.4818
16.0581
18.3883
20.1879
21.2355
21.4419
20.8978
19.8644
18.6848
17.6485
15.488
14.8691
14.4023
13.9467
13.4061
12.7218
11.8607
10.8083
9.56512
8.14666
6.58505
4.93059
3.2528
1.63994
0.196
-0.965479
-1.73128
-2.00245
-1.62187
-0.444931
1.52765
4.21068
7.42265
10.8837
14.2314
17.064
19.0159
19.8603
19.6075
18.5403
17.1236
15.7965
13.1923
12.5712
12.0712
11.5445
10.8898
10.0442
8.9705
7.64957
6.0776
4.26698
2.24897
0.0767695
-2.17203
-4.39482
-6.46622
-8.24429
-9.5814
-10.3404
-10.3558
-9.36803
-7.32744
-4.28434
-0.40484
4.01426
8.54682
12.67
15.8441
17.647
17.936
16.9618
15.3148
13.641
10.56
9.94758
9.41633
8.8149
8.03848
7.02031
5.7186
4.10874
2.18131
-0.0560349
-2.57445
-5.31934
-8.20632
-11.1193
-13.9118
-16.4125
-18.4368
-19.8039
-20.3452
-19.7042
-17.7482
-14.4762
-10.0152
-4.64949
1.15966
6.78399
11.4966
14.6248
15.7828
15.0998
13.2631
11.1856
7.62806
7.03512
6.477
5.80224
4.90401
3.71206
2.17962
0.275792
-2.01565
-4.69315
-7.73187
-11.0774
-14.6405
-18.2931
-21.8692
-25.1696
-27.9735
-30.0568
-31.2169
-31.0839
-29.3941
-26.0803
-21.2075
-15.0121
-7.94644
-0.70535
5.80989
10.6394
13.0567
12.9427
11.0051
8.46987
4.4466
3.88284
3.30547
2.56594
1.55653
0.2036
-1.5451
-3.7275
-6.36763
-9.47122
-13.0188
-16.9578
-21.1957
-25.5952
-29.9732
-34.1056
-37.7387
-40.6071
-42.4612
-42.9587
-41.7172
-38.5826
-33.5392
-26.7385
-18.5705
-9.73401
-1.25801
5.60619
9.70594
10.5171
8.62876
5.58956
1.07389
0.547259
-0.0377527
-0.824254
-1.92045
-3.40398
-5.33345
-7.75476
-10.7006
-14.1849
-18.1946
-22.6803
-27.5481
-32.6535
-37.8
-42.7429
-47.2004
-50.8715
-53.4614
-54.6548
-54.0105
-51.2777
-46.3448
-39.2498
-30.2643
-20.0122
-9.56828
-0.43374
5.76057
7.91723
6.30035
2.72486
-2.42954
-2.91392
-3.49041
-4.29485
-5.4368
-6.99989
-9.05096
-11.6453
-14.8252
-18.6135
-23.0041
-27.9516
-33.3619
-39.0858
-44.9164
-50.5936
-55.8142
-60.2501
-63.571
-65.4652
-65.5009
-63.3551
-58.8087
-51.7709
-42.3489
-31.0076
-18.758
-7.25855
1.38445
5.34778
4.30406
0.182464
-6.00818
-6.44936
-6.99605
-7.77599
-8.90325
-10.4717
-12.5602
-15.2357
-18.5514
-22.5395
-27.2009
-32.4941
-38.3257
-44.5431
-50.9323
-57.222
-63.0948
-68.2048
-72.2003
-74.748
-75.4721
-74.0215
-70.0827
-63.4317
-53.9852
-41.9764
-28.2305
-14.4242
-3.06874
3.1808
3.09929
-1.54048
-9.61962
-10.0224
-10.5119
-11.2088
-12.2383
-13.7129
-15.7297
-18.3712
-21.7032
-25.7671
-30.5701
-36.0738
-42.1851
-48.7488
-55.5461
-62.2983
-68.6793
-74.3335
-78.8985
-82.0261
-83.3808
-82.6317
-79.4235
-73.4014
-64.2905
-52.0448
-37.189
-21.2507
-7.00533
2.02563
3.40319
-1.65857
-13.2436
-13.62
-14.017
-14.5516
-15.3737
-16.6283
-18.4408
-20.9148
-24.1302
-28.1369
-32.9464
-38.5209
-44.7665
-51.5256
-58.5757
-65.6341
-72.37
-78.4238
-83.4298
-87.0369
-88.9219
-88.7951
-86.3134
-81.0238
-72.4747
-60.3262
-44.7147
-26.8452
-9.55887
2.80711
6.30353
1.04555
-16.8934
-17.2644
-17.5198
-17.7847
-18.2572
-19.137
-20.5925
-22.7541
-25.7172
-29.5374
-34.2274
-39.7487
-46.0032
-52.8284
-59.9967
-67.2217
-74.1708
-80.4841
-85.7977
-89.764
-92.0615
-92.4194
-90.5316
-85.9133
-77.9576
-66.0435
-49.8705
-30.1612
-9.58594
6.84023
13.4002
8.41874
-20.6328
-21.0277
-21.0674
-20.9128
-20.8519
-21.1723
-22.1029
-23.8089
-26.3994
-29.9316
-34.4129
-39.7961
-45.9741
-52.7755
-59.9661
-67.2546
-74.3064
-80.7626
-86.2623
-90.4624
-93.0471
-93.7253
-92.1779
-87.9778
-80.4279
-68.6145
-51.7971
-30.0786
-5.69597
15.8824
26.9613
23.1877
-24.6081
-25.0591
-24.7577
-23.9665
-23.133
-22.6787
-22.9122
-24.0305
-26.1498
-29.3201
-33.5347
-38.7306
-44.7853
-51.5149
-58.6752
-65.9691
-73.0591
-79.5857
-85.1889
-89.5258
-92.2797
-93.1439
-91.7267
-87.5345
-79.839
-67.6621
-49.7623
-25.4705
3.69171
32.1404
50.0645
49.2516
-29.1172
-29.6341
-28.7589
-27.0009
-25.0795
-23.6021
-22.9675
-23.3881
-24.9717
-27.7459
-31.6775
-36.6783
-42.6044
-49.255
-56.374
-63.6566
-70.7607
-77.3242
-82.9827
-87.3851
-90.2002
-91.1056
-89.6309
-85.1319
-76.7413
-63.2189
-43.1476
-15.2246
20.2854
58.2093
86.6789
92.0009
-34.7669
-35.2543
-33.3407
-30.0912
-26.663
-23.8859
-22.2287
-21.8824
-22.9136
-25.3049
-28.9811
-33.8191
-39.6478
-46.2462
-53.3445
-60.6289
-67.7516
-74.3445
-80.0333
-84.449
-87.2302
-88.0096
-86.2852
-81.1565
-71.5068
-55.7517
-31.9355
1.78178
45.875
96.9157
141.619
158.658
-42.8547
-42.8402
-38.9065
-33.3008
-27.8102
-23.4478
-20.658
-19.5359
-20.0568
-22.1284
-25.6176
-30.3579
-36.1466
-42.741
-49.8568
-57.1707
-64.328
-70.952
-76.6542
-81.0383
-83.6965
-84.187
-81.9795
-75.8678
-64.356
-45.401
-16.3515
25.5974
82.1632
151.009
220.231
258.641
-56.3203
-54.03
-45.9152
-36.5174
-28.2695
-22.0838
-18.1456
-16.3272
-16.452
-18.3208
-21.7291
-26.4619
-32.2845
-38.9326
-46.1083
-53.4796
-60.6846
-67.3372
-73.0309
-77.3363
-79.7872
-79.8477
-76.8551
-69.3959
-55.4112
-32.2915
3.45534
55.9062
128.779
222.668
327.441
403.924
-82.1336
-71.1412
-54.1328
-38.7914
-27.1726
-19.152
-14.2389
-11.9685
-11.936
-13.8089
-17.3041
-22.1607
-28.1158
-34.8889
-42.1725
-49.6293
-56.8924
-63.5671
-69.2282
-73.4098
-75.5786
-75.0845
-71.0775
-61.897
-44.9533
-17.0202
26.3272
90.7769
183.096
309.715
468.231
608.816
-136.372
-93.5657
-59.278
-36.2106
-21.5102
-12.5239
-7.54823
-5.56152
-5.92616
-8.21139
-12.0923
-17.2901
-23.5352
-30.5463
-38.018
-45.6159
-52.9745
-59.6949
-65.3369
-69.4005
-71.287
-70.2273
-65.165
-54.1331
-34.2902
-1.89226
48.3234
123.782
235.445
400.891
645.881
941.32
-270.059
-100.467
-41.1693
-16.8433
-5.03156
1.03262
3.68793
3.90904
2.19732
-1.12941
-5.82617
-11.6693
-18.4286
-25.8518
-33.6556
-41.5226
-49.099
-55.9912
-61.7552
-65.8737
-67.7083
-66.4107
-60.7508
-48.6969
-27.3872
7.13961
60.5408
141.309
263.865
458.761
808.272
1527.26
VECTORS velocity double
8.14087e-05 -8.14087e-05 0
0.000163788 -9.70809e-07 0
2.58314e-05 0.000138928 0
-0.000379543 0.000266446 0
-0.00101014 0.000364154 0
-0.00180962 0.000435321 0
-0.00273245 0.000487511 0
-0.00374595 0.000525984 0
-0.00482401 0.000552082 0
-0.0059399 0.000563806 0
-0.00706081 0.000557101 0
-0.00814507 0.000527158 0
-0.00914175 0.00046953 0
-0.00999236 0.000381074 0
-0.0106342 0.000260777 0
-0.0110055 0.000110472 0
-0.0110512 -6.46828e-05 0
-0.0107304 -0.000256206 0
-0.0100239 -0.000450227 0
-0.00894453 -0.00062917 0
-0.00754178 -0.000773576 0
-0.00590352 -0.000864684 0
-0.00415119 -0.000887648 0
-0.00242868 -0.000834868 0
-0.000885141 -0.00070867 0
0.000346005 -0.000522477 0
0.00116857 -0.000300092 0
0.00154028 -7.1612e-05 0
0.00148362 0.000128263 0
0.0010943 0.000261058 0
0.000552979 0.000280266 0
0.000136356 0.000136356 0
-2.55116e-06 -0.000160266 0
-0.000255638 0.000248594 0
-0.00106443 0.000836112 0
-0.00246183 0.00137204 0
-0.00436592 0.00179325 0
-0.00666666 0.00210643 0
-0.00926243 0.00233501 0
-0.012066 0.00249553 0
-0.0149964 0.002591 0
-0.0179682 0.00261263 0
-0.0208837 0.00254461 0
-0.023629 0.00236919 0
-0.0260759 0.00207112 0
-0.0280872 0.00164137 0
-0.029525 0.00108014 0
-0.0302619 0.000399302 0
-0.0301936 -0.000376051 0
-0.0292528 -0.00120655 0
-0.0274236 -0.00203545 0
-0.0247537 -0.00279324 0
-0.0213618 -0.00340423 0
-0.0174384 -0.00379571 0
-0.0132379 -0.00390942 0
-0.00905976 -0.00371374 0
-0.00521881 -0.00321428 0
-0.00200689 -0.00245993 0
0.000349924 -0.00154202 0
0.00173342 -0.000584889 0
0.00216424 0.00026737 0
0.00181778 0.000857735 0
0.00102782 0.00101487 0
0.000286742 0.000559455 0
-0.000182092 2.43766e-05 0
-0.00100577 0.00114072 0
-0.00273644 0.00248345 0
-0.00529719 0.00368286 0
-0.00854385 0.00463317 0
-0.0123222 0.00534555 0
-0.0164903 0.00585979 0
-0.0209183 0.00620233 0
-0.025478 0.00637424 0
-0.0300317 0.00635502 0
-0.0344264 0.00611231 0
-0.038492 0.00561238 0
-0.0420463 0.00482923 0
-0.0449036 0.00375185 0
-0.046886 0.00238982 0
-0.0478369 0.000777462 0
-0.0476357 -0.00102368 0
-0.0462128 -0.00292271 0
-0.0435621 -0.00479908 0
-0.0397531 -0.00650852 0
-0.034939 -0.00789506 0
-0.0293592 -0.00880809 0
-0.0233329 -0.00912376 0
-0.0172416 -0.00876892 0
-0.0114976 -0.00774402 0
-0.00650034 -0.00613936 0
-0.00258101 -0.00413874 0
5.46287e-05 -0.0020073 0
0.00137733 -6.37375e-05 0
0.00156587 0.00134677 0
0.00100897 0.00187269 0
0.000302746 0.00114894 0
-0.000398399 0.000604868 0
-0.00190136 0.00288687 0
-0.0046939 0.0052605 0
-0.00852843 0.0073011 0
-0.0131696 0.0089028 0
-0.0184132 0.0100978 0
-0.0240824 0.0109448 0
-0.0300139 0.0114768 0
-0.0360426 0.0116881 0
-0.041991 0.0115433 0
-0.0476651 0.0109927 0
-0.0528563 0.00998886 0
-0.0573493 0.00850007 0
-0.0609317 0.00652069 0
-0.0634069 0.00407852 0
-0.064607 0.00123978 0
-0.0644062 -0.00188798 0
-0.0627318 -0.00515576 0
-0.0595747 -0.00837381 0
-0.0550014 -0.0113161 0
-0.0491662 -0.0137368 0
-0.0423183 -0.0153942 0
-0.0348005 -0.0160817 0
-0.0270386 -0.0156644 0
-0.0195133 -0.0141178 0
-0.0127162 -0.0115599 0
-0.00708633 -0.0082674 0
-0.00293673 -0.00466388 0
-0.00038553 -0.00128107 0
0.000693374 0.00129665 0
0.000689067 0.002484 0
0.000240617 0.00169231 0
-0.0006287 0.00163197 0
-0.0028555 0.00558953 0
-0.00676939 0.00926426 0
-0.0119215 0.0122839 0
-0.0179674 0.0146071 0
-0.0246472 0.0163169 0
-0.0317522 0.0175 0
-0.0390938 0.0181948 0
-0.0464814 0.0183864 0
-0.0537109 0.018023 0
-0.0605629 0.0170391 0
-0.0668069 0.0153778 0
-0.0722098 0.013007 0
-0.0765462 0.00993257 0
-0.0796101 0.00620565 0
-0.0812253 0.00192798 0
-0.0812564 -0.00274592 0
-0.0796152 -0.00761342 0
-0.0762685 -0.0124199 0
-0.0712541 -0.0168577 0
-0.0646984 -0.020586 0
-0.0568307 -0.0232605 0
-0.0479912 -0.0245725 0
-0.0386282 -0.0242986 0
-0.029279 -0.022358 0
-0.0205288 -0.0188671 0
-0.0129419 -0.0141771 0
-0.00697193 -0.00887377 0
-0.00286632 -0.00372799 0
-0.000592798 0.000391149 0
0.000194765 0.00260625 0
0.000140175 0.0020731 0
-0.0008615 0.00312217 0
-0.00381719 0.00928182 0
-0.00885192 0.0145206 0
-0.0153061 0.0186338 0
-0.0227215 0.0217185 0
-0.0307826 0.0239464 0
-0.0392531 0.025446 0
-0.0479269 0.0262642 0
-0.0565988 0.0263765 0
-0.0650515 0.0257151 0
-0.0730537 0.0242012 0
-0.0803653 0.0217713 0
-0.0867454 0.0183965 0
-0.0919612 0.0140954 0
-0.0957972 0.00894263 0
-0.0980634 0.00307245 0
-0.0986032 -0.00331948 0
-0.0972972 -0.00998709 0
-0.0940693 -0.0166208 0
-0.0889064 -0.0228342 0
-0.0818839 -0.0281877 0
-0.0731882 -0.0322222 0
-0.0631343 -0.0345043 0
-0.0521748 -0.0346893 0
-0.0408934 -0.0325977 0
-0.0299719 -0.0282991 0
-0.0201213 -0.0221825 0
-0.0119763 -0.0149833 0
-0.00596632 -0.00773405 0
-0.00220175 -0.00164089 0
-0.00041585 0.00206483 0
1.99943e-05 0.00223327 0
-0.00108749 0.00507115 0
-0.00474558 0.0139466 0
-0.0108518 0.0209967 0
-0.0185418 0.0263018 0
-0.0272494 0.0301734 0
-0.0366085 0.0329118 0
-0.0463614 0.034704 0
-0.0562928 0.0356113 0
-0.0661927 0.0356012 0
-0.0758413 0.0345916 0
-0.085006 0.0324915 0
-0.0934453 0.0292319 0
-0.100915 0.0247859 0
-0.107176 0.0191822 0
-0.111997 0.012513 0
-0.115166 0.00493716 0
-0.116492 -0.00331824 0
-0.115813 -0.0119732 0
-0.112998 -0.0206773 0
-0.107969 -0.0289703 0
-0.100731 -0.0363118 0
-0.0914081 -0.0421167 0
-0.0802669 -0.0458049 0
-0.0677414 -0.0468737 0
-0.0544425 -0.0449936 0
-0.0411419 -0.0401254 0
-0.0287118 -0.0326369 0
-0.0180089 -0.0233769 0
-0.00970792 -0.0136513 0
-0.00412971 -0.00506639 0
-0.00113334 0.00070806 0
-0.000116204 0.00213706 0
-0.00129687 0.00745551 0
-0.00560091 0.0195244 0
-0.012686 0.0286103 0
-0.0215011 0.0351934 0
-0.0313843 0.0398726 0
-0.0419279 0.0431155 0
-0.0528598 0.0451852 0
-0.0639627 0.0461644 0
-0.0750304 0.0460157 0
-0.0858486 0.0446439 0
-0.0961904 0.0419457 0
-0.105818 0.0378443 0
-0.114484 0.0323102 0
-0.121941 0.025375 0
-0.127938 0.0171389 0
-0.132233 0.0077746 0
-0.134592 -0.0024703 0
-0.134805 -0.0132868 0
-0.132683 -0.0243008 0
-0.128072 -0.0349868 0
-0.1209 -0.0447052 0
-0.111207 -0.0527392 0
-0.0991863 -0.0583443 0
-0.0852218 -0.0608244 0
-0.0699193 -0.0596441 0
-0.0541161 -0.0545787 0
-0.0388419 -0.0458878 0
-0.0252066 -0.0344643 0
-0.0141993 -0.0218722 0
-0.00643972 -0.0101834 0
-0.00198153 -0.00162949 0
-0.000272454 0.0017484 0
-0.00147906 0.0102314 0
-0.00634273 0.0259162 0
-0.0142738 0.0372347 0
-0.0240621 0.0451724 0
-0.0349669 0.0506815 0
-0.0465482 0.0544315 0
-0.058526 0.0567788 0
-0.0706872 0.0578349 0
-0.0828351 0.0575607 0
-0.0947668 0.0558486 0
-0.106265 0.0525812 0
-0.117098 0.0476688 0
-0.127018 0.0410724 0
-0.135765 0.0328163 0
-0.143068 0.0229977 0
-0.14865 0.0117921 0
-0.152235 -0.000542678 0
-0.153566 -0.0136708 0
-0.152395 -0.0272102 0
-0.148499 -0.0405836 0
-0.141718 -0.0530621 0
-0.131993 -0.0638001 0
-0.119417 -0.0718799 0
-0.104286 -0.076385 0
-0.0871522 -0.0765193 0
-0.0688734 -0.0717855 0
-0.0506074 -0.0622212 0
-0.0337251 -0.0486485 0
-0.0195927 -0.0328275 0
-0.00923568 -0.0173447 0
-0.00300839 -0.00515366 0
-0.00046042 0.00101553 0
-0.00162323 0.0133337 0
-0.00693108 0.0329854 0
-0.0155373 0.0467027 0
-0.0261089 0.0560643 0
-0.037844 0.0624295 0
-0.0502793 0.0667001 0
-0.0631316 0.0693404 0
-0.0761956 0.0704986 0
-0.0892881 0.0701373 0
-0.102221 0.0681362 0
-0.114789 0.0643604 0
-0.126769 0.0587021 0
-0.137913 0.0511036 0
-0.147953 0.0415722 0
-0.1566 0.030191 0
-0.163547 0.0171279 0
-0.168482 0.00264299 0
-0.171102 -0.0129067 0
-0.171112 -0.029135 0
-0.168229 -0.0454374 0
-0.162205 -0.0610142 0
-0.152872 -0.0749058 0
-0.140195 -0.086027 0
-0.124337 -0.0932271 0
-0.105743 -0.0954045 0
-0.0852212 -0.091701 0
-0.0639969 -0.0817961 0
-0.0436765 -0.0662764 0
-0.0260424 -0.046966 0
-0.0126416 -0.0269641 0
-0.00427592 -0.0101272 0
-0.000694948 -0.000139842 0
-0.00171929 0.0166762 0
-0.00732921 0.0405607 0
-0.0164059 0.0568104 0
-0.0275356 0.0676579 0
-0.0398739 0.0749094 0
-0.0529402 0.0797217 0
-0.0664506 0.0826814 0
-0.0802093 0.0839804 0
-0.0940475 0.0835862 0
-0.107793 0.0813656 0
-0.121258 0.0771636 0
-0.134227 0.070848 0
-0.14646 0.0623351 0
-0.157685 0.0516063 0
-0.167603 0.0387218 0
-0.175892 0.0238328 0
-0.182212 0.00719381 0
-0.186222 -0.0108284 0
-0.187597 -0.0298288 0
-0.18601 -0.0492134 0
-0.181132 -0.0681401 0
-0.172682 -0.0855634 0
-0.160475 -0.100253 0
-0.144502 -0.110832 0
-0.125031 -0.115865 0
-0.102738 -0.114055 0
-0.0788268 -0.104578 0
-0.0550683 -0.0875736 0
-0.0336605 -0.0647107 0
-0.0167764 -0.0395043 0
-0.00585059 -0.0168785 0
-0.000992685 -0.00182748 0
-0.0017589 0.0201544 0
-0.00750696 0.0484405 0
-0.0168212 0.0673215 0
-0.0282541 0.0797094 0
-0.0409355 0.0878778 0
-0.0543718 0.0932559 0
-0.068278 0.0965638 0
-0.0824665 0.0980452 0
-0.0967829 0.097676 0
-0.111072 0.0953111 0
-0.125163 0.090773 0
-0.138857 0.0839016 0
-0.151925 0.074582 0
-0.164104 0.062764 0
-0.1751 0.0484783 0
-0.184588 0.0318527 0
-0.192221 0.0131273 0
-0.197639 -0.00733392 0
-0.2005 -0.0290877 0
-0.200452 -0.0515896 0
-0.197102 -0.0739914 0
-0.19006 -0.0952045 0
-0.178981 -0.113897 0
-0.163647 -0.128495 0
-0.144087 -0.137232 0
-0.12075 -0.138317 0
-0.0946971 -0.13028 0
-0.0677544 -0.112573 0
-0.0424767 -0.086397 0
-0.0217317 -0.0554471 0
-0.00779539 -0.0257978 0
-0.00137063 -0.00419079 0
-0.0017367 0.02365 0
-0.00744449 0.0564007 0
-0.016744 0.077975 0
-0.0282026 0.0919473 0
-0.0409411 0.10106 0
-0.0544538 0.107023 0
-0.068452 0.110701 0
-0.0827534 0.112398 0
-0.097216 0.112102 0
-0.111702 0.10966 0
-0.12606 0.104872 0
-0.140112 0.0975484 0
-0.153651 0.0875417 0
-0.166435 0.0747681 0
-0.178191 0.059226 0
-0.188614 0.0410156 0
-0.197372 0.0203555 0
-0.204114 -0.00240174 0
-0.208496 -0.0267771 0
-0.210154 -0.0522904 0
-0.208663 -0.0781318 0
-0.203542 -0.103227 0
-0.194289 -0.126207 0
-0.180451 -0.145359 0
-0.161759 -0.158621 0
-0.13834 -0.163685 0
-0.110981 -0.158323 0
-0.0814057 -0.141047 0
-0.052407 -0.112199 0
-0.0275521 -0.0752449 0
-0.0101637 -0.0373247 0
-0.00184547 -0.00740689 0
-0.00165124 0.027038 0
-0.00713563 0.064205 0
-0.01616 0.0884947 0
-0.0273556 0.104082 0
-0.0398486 0.114157 0
-0.053122 0.120712 0
-0.0668784 0.124766 0
-0.0809361 0.126692 0
-0.0951632 0.126498 0
-0.109439 0.124027 0
-0.123633 0.119058 0
-0.137596 0.111377 0
-0.15115 0.100806 0
-0.16409 0.0872289 0
-0.176183 0.070614 0
-0.187165 0.0510324 0
-0.196746 0.0286776 0
-0.204611 0.00388303 0
-0.210427 -0.0228636 0
-0.213848 -0.0511249 0
-0.214454 -0.0801829 0
-0.211703 -0.109047 0
-0.20495 -0.136393 0
-0.193501 -0.160461 0
-0.176748 -0.178964 0
-0.154405 -0.189105 0
-0.126845 -0.187822 0
-0.0955074 -0.17246 0
-0.0632366 -0.142056 0
-0.0342206 -0.099259 0
-0.0129938 -0.0519259 0
-0.0024327 -0.0116851 0
-0.00150575 0.030195 0
-0.00659052 0.0716171 0
-0.0150849 0.0986012 0
-0.0257305 0.115817 0
-0.0376732 0.126858 0
-0.0503834 0.133995 0
-0.0635498 0.138407 0
-0.0769866 0.140546 0
-0.0905684 0.140453 0
-0.104191 0.13797 0
-0.117749 0.132867 0
-0.131124 0.124906 0
-0.144179 0.113886 0
-0.156757 0.0996672 0
-0.16868 0.0821918 0
-0.17975 0.0615061 0
-0.189742 0.0377771 0
-0.198404 0.0113095 0
-0.20544 -0.0174375 0
-0.21055 -0.0480198 0
-0.21336 -0.0798721 0
-0.213309 -0.11216 0
-0.209639 -0.143703 0
-0.201431 -0.172808 0
-0.18772 -0.197081 0
-0.167736 -0.213314 0
-0.141306 -0.217604 0
-0.109381 -0.205941 0
-0.074618 -0.175608 0
-0.0416496 -0.127691 0
-0.0163046 -0.0700659 0
-0.00314645 -0.0172642 0
-0.00130846 0.0330092 0
-0.00583706 0.0784163 0
-0.013568 0.108027 0
-0.0233937 0.126862 0
-0.0344934 0.138855 0
-0.0463248 0.146539 0
-0.0585577 0.151262 0
-0.0709973 0.153567 0
-0.0835223 0.153539 0
-0.0960445 0.15103 0
-0.108485 0.145806 0
-0.120762 0.137618 0
-0.132784 0.126251 0
-0.144452 0.111548 0
-0.155655 0.0934373 0
-0.166273 0.0719479 0
-0.17617 0.0472248 0
-0.185185 0.019538 0
-0.193107 -0.0107074 0
-0.199707 -0.0430402 0
-0.204673 -0.0770754 0
-0.207478 -0.112203 0
-0.207311 -0.147495 0
-0.20307 -0.181465 0
-0.193439 -0.211766 0
-0.17713 -0.234921 0
-0.153304 -0.246252 0
-0.122228 -0.240294 0
-0.0860865 -0.21216 0
-0.0496796 -0.160515 0
-0.0200945 -0.0921719 0
-0.00400009 -0.0244108 0
-0.00107246 0.0353901 0
-0.00492104 0.0844125 0
-0.0116927 0.116534 0
-0.0204622 0.136951 0
-0.0304546 0.149858 0
-0.0411162 0.158029 0
-0.0520949 0.162983 0
-0.0631835 0.165373 0
-0.0742633 0.165337 0
-0.0852629 0.162753 0
-0.0961323 0.157392 0
-0.106829 0.149005 0
-0.117313 0.137371 0
-0.127545 0.122328 0
-0.137488 0.103803 0
-0.147108 0.0818195 0
-0.156369 0.056512 0
-0.165226 0.0281225 0
-0.173596 -0.00299994 0
-0.181339 -0.0364048 0
-0.18823 -0.0718536 0
-0.193834 -0.109016 0
-0.197359 -0.147323 0
-0.197586 -0.185651 0
-0.192903 -0.221894 0
-0.181499 -0.252507 0
-0.161798 -0.272193 0
-0.133192 -0.274036 0
-0.0970889 -0.250661 0
-0.0580875 -0.197422 0
-0.0243442 -0.118594 0
-0.00500842 -0.0334193 0
-0.00081524 0.0372778 0
-0.00390515 0.0894633 0
-0.00957623 0.123926 0
-0.0171027 0.145854 0
-0.0257666 0.159611 0
-0.0350065 0.168178 0
-0.0444483 0.173255 0
-0.0538719 0.175614 0
-0.0631621 0.175466 0
-0.0722664 0.172728 0
-0.0811673 0.167188 0
-0.0898658 0.158605 0
-0.0983747 0.146764 0
-0.106717 0.13151 0
-0.11493 0.112776 0
-0.123064 0.0905994 0
-0.131187 0.0651176 0
-0.139375 0.0365621 0
-0.147682 0.00523642 0
-0.156091 -0.0284895 0
-0.164498 -0.0644705 0
-0.172609 -0.102684 0
-0.179729 -0.14301 0
-0.184622 -0.184844 0
-0.185468 -0.226538 0
-0.179991 -0.264743 0
-0.165853 -0.293796 0
-0.141421 -0.305471 0
-0.107021 -0.289728 0
-0.0666009 -0.237776 0
-0.0290235 -0.14956 0
-0.0061922 -0.0446199 0
-0.000557932 0.038651 0
-0.00286726 0.0934894 0
-0.00736709 0.130071 0
-0.0135289 0.153398 0
-0.0206988 0.167901 0
-0.0283145 0.176743 0
-0.0359844 0.181802 0
-0.0434795 0.183986 0
-0.0506919 0.183597 0
-0.0575931 0.180603 0
-0.0642026 0.174823 0
-0.0705692 0.166035 0
-0.0767615 0.154035 0
-0.082866 0.138685 0
-0.0889886 0.119936 0
-0.0952593 0.0978446 0
-0.101836 0.0725727 0
-0.108902 0.0443609 0
-0.116643 0.0134852 0
-0.125184 -0.0197884 0
-0.134571 -0.0553773 0
-0.144682 -0.0935554 0
-0.154996 -0.134704 0
-0.164382 -0.178872 0
-0.170951 -0.225096 0
-0.172081 -0.270533 0
-0.16472 -0.309507 0
-0.14613 -0.332783 0
-0.115264 -0.327682 0
-0.0749153 -0.280592 0
-0.0341037 -0.185133 0
-0.00758474 -0.0583968 0
-0.000324803 0.0395337 0
-0.00189927 0.0964904 0
-0.00524382 0.134914 0
-0.00999866 0.159471 0
-0.0155743 0.174573 0
-0.0214176 0.18353 0
-0.0271311 0.188398 0
-0.0324864 0.19024 0
-0.0373917 0.189461 0
-0.04185 0.186098 0
-0.0459246 0.180012 0
-0.0497171 0.171005 0
-0.0533553 0.158896 0
-0.0569896 0.143564 0
-0.0607917 0.124982 0
-0.0649592 0.103236 0
-0.0697202 0.0785187 0
-0.0753375 0.0510982 0
-0.0820996 0.0212512 0
-0.0902792 -0.0108335 0
-0.100069 -0.0451555 0
-0.111517 -0.0822185 0
-0.124345 -0.122899 0
-0.137654 -0.167982 0
-0.149672 -0.217398 0
-0.157627 -0.269146 0
-0.157894 -0.317987 0
-0.146636 -0.354152 0
-0.121207 -0.362607 0
-0.0827039 -0.324518 0
-0.0395662 -0.225156 0
-0.00923876 -0.0752203 0
-0.000143439 0.040002 0
-0.00110787 0.0985611 0
-0.00341578 0.138496 0
-0.00681294 0.164041 0
-0.0107641 0.17953 0
-0.01474 0.188392 0
-0.0183572 0.192866 0
-0.0214063 0.194176 0
-0.0238263 0.19285 0
-0.0256629 0.189004 0
-0.0270313 0.182549 0
-0.028091 0.17332 0
-0.0290325 0.161161 0
-0.0300708 0.145971 0
-0.0314425 0.127748 0
-0.0334054 0.106601 0
-0.036242 0.082752 0
-0.0402645 0.0565047 0
-0.0458182 0.0281606 0
-0.0532687 -0.00211277 0
-0.0629264 -0.0344288 0
-0.0749939 -0.0694294 0
-0.0894519 -0.108402 0
-0.105751 -0.152871 0
-0.122445 -0.203797 0
-0.136881 -0.260357 0
-0.145122 -0.318267 0
-0.142366 -0.367886 0
-0.124238 -0.392429 0
-0.0896065 -0.367832 0
-0.0454004 -0.269187 0
-0.0112294 -0.0956885 0
-4.67065e-05 0.0401921 0
-0.000620214 0.0999089 0
-0.00212998 0.140966 0
-0.00431921 0.167158 0
-0.00668393 0.182729 0
-0.00874015 0.191225 0
-0.0101517 0.195062 0
-0.010757 0.195635 0
-0.0105477 0.193602 0
-0.00962805 0.189169 0
-0.00817484 0.1823 0
-0.00641037 0.172865 0
-0.00458979 0.160737 0
-0.00299432 0.145838 0
-0.00192402 0.128183 0
-0.00169413 0.107899 0
-0.00263243 0.0852286 0
-0.00507811 0.0604962 0
-0.00938474 0.0340293 0
-0.0159259 0.00601021 0
-0.0250631 -0.0237569 0
-0.0371006 -0.0559963 0
-0.0522386 -0.0922395 0
-0.0703355 -0.134638 0
-0.0904707 -0.1852 0
-0.110438 -0.244551 0
-0.126373 -0.309897 0
-0.132818 -0.372567 0
-0.123701 -0.414991 0
-0.0951808 -0.408422 0
-0.0515754 -0.316408 0
-0.0136478 -0.120566 0
-7.82174e-05 0.040317 0
-0.000598746 0.100878 0
-0.00168818 0.142596 0
-0.00292184 0.168951 0
-0.00379317 0.184173 0
-0.00389831 0.191943 0
-0.00299894 0.194856 0
-0.00102428 0.194471 0
0.00195046 0.191581 0
0.00574259 0.186477 0
0.0101013 0.179179 0
0.0147316 0.169591 0
0.0193089 0.157613 0
0.023489 0.143186 0
0.0269139 0.126339 0
0.0292196 0.107207 0
0.0300461 0.0860325 0
0.0290475 0.0631367 0
0.0258999 0.0388431 0
0.0202989 0.0133386 0
0.0119235 -0.0135727 0
0.000438158 -0.0426577 0
-0.0145037 -0.0754982 0
-0.0331203 -0.114666 0
-0.0551311 -0.163026 0
-0.0791071 -0.222782 0
-0.101751 -0.293088 0
-0.117476 -0.367207 0
-0.118787 -0.428157 0
-0.0987989 -0.443765 0
-0.0579686 -0.3655 0
-0.0165781 -0.150792 0
-0.000304446 0.0406997 0
-0.00127177 0.101983 0
-0.00247899 0.143787 0
-0.00309935 0.169613 0
-0.00259185 0.183874 0
-0.000693565 0.190449 0
0.00266501 0.192093 0
0.00739729 0.190528 0
0.0132914 0.186656 0
0.0200638 0.180838 0
0.0273832 0.17314 0
0.0348854 0.163498 0
0.0421847 0.15183 0
0.0488828 0.138091 0
0.0545756 0.122317 0
0.0588647 0.104635 0
0.061371 0.0852718 0
0.0617508 0.0645162 0
0.0597097 0.0426524 0
0.0550026 0.0198374 0
0.0474046 -0.00409813 0
0.0366759 -0.0299183 0
0.0225331 -0.059153 0
0.00455781 -0.0944189 0
-0.0176584 -0.139046 0
-0.0436995 -0.196745 0
-0.0713605 -0.268819 0
-0.0956821 -0.351429 0
-0.108377 -0.429929 0
-0.0994691 -0.470889 0
-0.0642302 -0.414446 0
-0.0200486 -0.187418 0
-0.000838743 0.0418429 0
-0.0029882 0.103957 0
-0.00502566 0.145058 0
-0.00541961 0.169356 0
-0.00360204 0.181806 0
0.000438474 0.186578 0
0.00647891 0.186564 0
0.0141914 0.183612 0
0.0231904 0.178679 0
0.0330715 0.172162 0
0.0434193 0.164149 0
0.053809 0.154596 0
0.063809 0.143432 0
0.0729851 0.130615 0
0.0809085 0.116176 0
0.0871673 0.100227 0
0.0913829 0.0829577 0
0.0932285 0.0646048 0
0.0924439 0.0453894 0
0.0888381 0.0254132 0
0.0822645 0.00449774 0
0.0725484 -0.0180695 0
0.0594332 -0.0437439 0
0.0425338 -0.0749532 0
0.0213444 -0.115106 0
-0.00469472 -0.168605 0
-0.0351094 -0.238884 0
-0.0664796 -0.325673 0
-0.0908257 -0.418644 0
-0.0955651 -0.486342 0
-0.0695552 -0.460242 0
-0.023946 -0.231413 0
-0.00188438 0.044566 0
-0.00629944 0.107798 0
-0.0100276 0.146982 0
-0.0105104 0.168309 0
-0.007285 0.17781 0
-0.000794484 0.180043 0
0.00828892 0.177976 0
0.0193073 0.173469 0
0.0316669 0.167463 0
0.0448345 0.160329 0
0.0583202 0.152148 0
0.0716568 0.142871 0
0.0843898 0.132424 0
0.0960754 0.120761 0
0.106286 0.107897 0
0.114622 0.0939127 0
0.120726 0.0789522 0
0.124304 0.0631872 0
0.125132 0.0467636 0
0.123062 0.0297148 0
0.117996 0.0118359 0
0.109817 -0.00751256 0
0.0982833 -0.0296524 0
0.0829863 -0.0568482 0
0.0633168 -0.0923521 0
0.0384322 -0.140435 0
0.00757162 -0.205779 0
-0.0284391 -0.291397 0
-0.0637262 -0.393287 0
-0.0844496 -0.486237 0
-0.0723161 -0.49849 0
-0.0278654 -0.283224 0
-0.00379951 0.0502499 0
-0.012036 0.114766 0
-0.0182924 0.149999 0
-0.0188285 0.166311 0
-0.0136923 0.171446 0
-0.00411232 0.170336 0
0.00861898 0.165868 0
0.0234432 0.159735 0
0.0395429 0.152738 0
0.0562743 0.145155 0
0.0731005 0.137011 0
0.0895434 0.128229 0
0.105157 0.118719 0
0.119518 0.108419 0
0.132229 0.0973169 0
0.142927 0.085458 0
0.151299 0.0729312 0
0.157089 0.0598405 0
0.160114 0.0462574 0
0.160255 0.0321504 0
0.157435 0.0172864 0
0.151561 0.0010891 0
0.142396 -0.0175554 0
0.129481 -0.0407331 0
0.11207 -0.0713866 0
0.0890095 -0.113455 0
0.0588429 -0.171731 0
0.0205705 -0.251162 0
-0.0236873 -0.353977 0
-0.0619927 -0.466517 0
-0.069476 -0.52286 0
-0.0308459 -0.341936 0
-0.00715155 0.061201 0
-0.0212005 0.1261 0
-0.0301946 0.153915 0
-0.0297554 0.162492 0
-0.0213327 0.161707 0
-0.00738963 0.156552 0
0.0100279 0.149503 0
0.0294592 0.141845 0
0.0499067 0.134081 0
0.0706751 0.126312 0
0.0912332 0.118469 0
0.111135 0.110426 0
0.129981 0.102064 0
0.1474 0.0932942 0
0.163054 0.0840772 0
0.176636 0.0744168 0
0.187888 0.0643495 0
0.196601 0.0539179 0
0.202625 0.0431315 0
0.20585 0.0319102 0
0.206189 0.0200082 0
0.203519 0.0069101 0
0.19762 -0.00831168 0
0.187981 -0.0274225 0
0.173647 -0.0529524 0
0.153122 -0.088304 0
0.124302 -0.137895 0
0.084841 -0.207264 0
0.0338122 -0.302589 0
-0.022028 -0.42376 0
-0.0556274 -0.524534 0
-0.0308685 -0.40365 0
-0.0125492 0.0809017 0
-0.0339268 0.141826 0
-0.0434173 0.156674 0
-0.0385442 0.154421 0
-0.023684 0.146495 0
-0.00292554 0.137063 0
0.0209793 0.12767 0
0.0463318 0.118893 0
0.0721253 0.110791 0
0.0977277 0.103231 0
0.122692 0.0960273 0
0.146662 0.0889961 0
0.169325 0.081985 0
0.190397 0.0748819 0
0.209615 0.067618 0
0.226746 0.0601619 0
0.241592 0.052507 0
0.253989 0.0446496 0
0.263807 0.0365582 0
0.270935 0.02813 0
0.275253 0.0191323 0
0.276586 0.00912178 0
0.274639 -0.00267701 0
0.268821 -0.0176002 0
0.258007 -0.0376266 0
0.240341 -0.0654384 0
0.213116 -0.104716 0
0.172865 -0.160731 0
0.116259 -0.241487 0
0.0442147 -0.356977 0
-0.0213693 -0.492134 0
-0.0238298 -0.458348 0