# vtk DataFile Version 2.0
Lid-driven cavity
ASCII
DATASET STRUCTURED_POINTS
DIMENSIONS 32 32 1
ORIGIN 0.015625 0.015625 0
SPACING 0.03125 0.03125 1
POINT_DATA 1024
SCALARS pressure double 1
LOOKUP_TABLE default
53.5664
53.3392
52.9291
52.4639
52.0219
51.6435
51.3491
51.1537
51.0739
51.1305
51.3465
51.744
52.3391
53.1372
54.1283
55.2832
56.5516
57.8643
59.1305
60.2473
61.1125
61.6401
61.7763
61.5118
60.8878
59.9926
58.9482
57.8937
56.9672
56.2873
55.938
55.9274
53.7934
53.5561
53.2124
52.8366
52.478
52.165
51.9156
51.7447
51.6692
51.709
51.8858
52.2204
52.7285
53.4164
54.2771
55.2859
56.3988
57.5559
58.675
59.6625
60.4256
60.8868
60.9986
60.7557
60.1992
59.4123
58.5069
57.6019
56.8117
56.2287
55.9186
55.9165
54.2191
53.8792
53.5227
53.1787
52.8646
52.5897
52.3617
52.1912
52.0934
52.0884
52.1991
52.4487
52.8566
53.4343
54.1808
55.0784
56.0897
57.1597
58.2091
59.1458
59.8763
60.3211
60.4306
60.1978
59.6631
58.9096
58.0475
57.1933
56.4483
55.8934
55.5862
55.572
54.6999
54.2124
53.7984
53.4463
53.1419
52.8732
52.6353
52.4325
52.2781
52.1931
52.204
52.3394
52.6261
53.084
53.7213
54.5291
55.4774
56.5122
57.5548
58.5093
59.275
59.7628
59.9126
59.7088
59.1874
58.4314
57.5547
56.6778
55.9052
55.3133
54.9569
54.8793
55.0993
54.4472
53.9534
53.5662
53.2403
52.9431
52.6574
52.3812
52.1267
51.9175
51.7856
51.7677
51.9008
52.2163
52.7341
53.4565
54.363
55.3999
56.4892
57.5291
58.4069
59.0164
59.2787
59.1602
58.6837
57.9277
57.0103
56.0625
55.2009
54.5106
54.0498
53.8611
55.2846
54.4664
53.8836
53.4419
53.0657
52.703
52.3257
51.9274
51.5203
51.1321
50.8023
50.578
50.509
50.6407
51.0078
51.627
52.4908
53.5506
54.7317
55.9267
57.0079
57.8455
58.3306
58.3984
58.0457
57.3356
56.3859
55.3416
54.342
53.4954
52.8751
52.533
55.123
54.1462
53.4717
52.9601
52.5052
52.0374
51.5198
50.9429
50.3206
49.686
49.0878
48.5854
48.2435
48.125
48.2827
48.7516
49.5419
50.622
51.9269
53.3468
54.7379
55.9403
56.8033
57.2136
57.1221
56.5585
55.6289
54.4916
53.3189
52.2604
51.4242
50.8873
54.4828
53.3606
52.5947
51.9983
51.4352
50.8197
50.1073
49.2871
48.3756
47.4122
46.4557
45.5797
44.8663
44.399
44.2535
44.4885
45.1373
46.201
47.6383
49.3437
51.1596
52.8916
54.3346
55.3069
55.6865
55.4421
54.6461
53.4618
52.1035
50.7843
49.6748
48.8929
53.2371
51.9876
51.1313
50.4339
49.7305
48.9204
47.9529
46.8158
45.5284
44.1367
42.7103
41.3378
40.1216
39.1697
38.5863
38.4608
38.8561
39.8201
41.3608
43.3885
45.7382
48.1809
50.4475
52.2661
53.4102
53.7488
53.2846
52.1639
50.6444
49.0277
47.5817
46.4962
51.2724
49.9172
48.9711
48.1545
47.2755
46.2197
44.9305
43.394
41.6316
39.6951
37.6647
35.6452
33.7614
32.1505
30.9517
30.2932
30.2765
31.0005
32.563
34.9061
37.8707
41.1995
44.5558
47.56
49.847
51.138
51.3131
50.4589
48.8626
46.9359
45.0901
43.6293
48.4971
47.0612
46.0254
45.069
43.9764
42.6204
40.9381
38.9129
36.5665
33.9552
31.1685
28.328
25.5832
23.1047
21.0739
19.6679
19.0406
19.3237
20.7599
23.3477
26.9529
31.3055
36.0073
40.5628
44.4394
47.1585
48.4079
48.1455
46.6463
44.4406
42.1373
40.2155
44.8513
43.3626
42.2367
41.1192
39.7739
38.0625
35.9147
33.3096
30.2669
26.8447
23.141
19.2932
15.4769
11.9004
8.79349
6.39104
4.91067
4.52636
5.61339
8.29552
12.4852
17.9228
24.1689
30.62
36.5609
41.2668
44.1535
44.9529
43.847
41.4633
38.6611
36.1804
40.3153
38.8036
37.5883
36.2896
34.6554
32.5371
29.8569
26.5869
22.7422
18.3805
13.6052
8.56895
3.47389
-1.43204
-5.86565
-9.52685
-12.1255
-13.417
-12.9606
-10.4145
-5.79696
0.674288
8.55322
17.1574
25.5991
32.8796
38.0666
40.5461
40.2798
37.9204
34.6121
31.4658
34.9145
33.411
32.1096
30.6147
28.6631
26.0976
22.8319
18.8294
14.098
8.69143
2.71645
-3.6614
-10.2142
-16.6537
-22.6407
-27.8051
-31.7758
-34.2227
-34.6936
-32.5763
-27.7892
-20.4724
-11.031
-0.17381
11.0808
21.4679
29.654
34.5531
35.7341
33.7338
29.969
26.0478
28.7214
27.2578
25.8781
24.1813
21.8981
18.8644
14.9847
10.2125
4.54533
-1.96926
-9.22435
-17.044
-25.1767
-33.2952
-41.0053
-47.8653
-53.4184
-57.2361
-58.8981
-57.533
-52.9176
-45.0813
-34.3358
-21.3443
-7.17826
6.68635
18.5071
26.6207
30.0013
28.8496
24.7614
19.9616
21.8518
20.4589
19.0158
17.1258
14.5182
11.0233
6.53676
1.00012
-5.60092
-13.2278
-21.7762
-31.0626
-40.8151
-50.671
-60.1846
-68.8467
-76.1186
-81.4779
-84.4735
-84.1722
-80.1105
-72.1894
-60.5806
-45.8215
-28.9289
-11.4823
4.42572
16.5019
22.9265
23.2702
19.1011
13.3336
14.4562
13.1623
11.6797
9.62431
6.72766
2.81569
-2.2257
-8.46795
-15.9391
-24.6116
-34.3861
-45.0743
-56.3874
-67.9319
-79.2165
-89.6726
-98.6891
-105.661
-110.052
-111.029
-107.875
-100.349
-88.4522
-72.52
-53.393
-32.5999
-12.4496
4.16735
14.4842
17.1034
13.2251
6.42619
6.70625
5.53534
4.04734
1.87803
-1.23729
-5.47817
-10.9701
-17.7994
-26.0094
-35.5857
-46.4353
-58.3677
-71.0805
-84.1542
-97.059
-109.176
-119.836
-128.364
-134.143
-136.467
-134.476
-127.789
-116.223
-99.8632
-79.2575
-55.706
-31.5291
-10.0775
4.87616
10.6328
7.55531
-0.302022
-1.22167
-2.25285
-3.70071
-5.90487
-9.12807
-13.56
-19.342
-26.5785
-35.3309
-45.5987
-57.2971
-70.2349
-84.0986
-98.447
-112.719
-126.256
-138.343
-148.258
-155.322
-158.918
-158.193
-152.668
-141.987
-125.969
-104.789
-79.3459
-51.7245
-25.4944
-5.36088
4.41081
2.7815
-6.10928
-9.16532
-10.0502
-11.4005
-13.5289
-16.7036
-21.1353
-26.9903
-34.3974
-43.439
-54.1305
-66.3954
-80.0422
-94.7481
-110.054
-125.372
-140.014
-153.235
-164.28
-172.445
-177.119
-177.605
-173.384
-163.969
-148.937
-128.062
-101.714
-71.4919
-40.8648
-15.2535
-0.624941
-0.0202733
-9.84021
-16.9958
-17.7418
-18.924
-20.829
-23.7477
-27.9319
-33.5892
-40.8825
-49.9202
-60.7341
-73.2547
-87.289
-102.506
-118.429
-134.451
-149.861
-163.89
-175.768
-184.783
-190.321
-191.832
-188.845
-180.831
-167.169
-147.264
-120.897
-88.9734
-54.5169
-23.3189
-3.0177
0.778008
-9.73
-24.6375
-25.2696
-26.1959
-27.685
-30.0816
-33.7134
-38.8546
-45.7164
-54.438
-65.0667
-77.5356
-91.6463
-107.058
-123.28
-139.689
-155.556
-170.096
-182.529
-192.142
-198.331
-200.619
-198.634
-191.886
-179.637
-160.991
-135.157
-102.219
-64.4349
-27.5418
-0.652817
7.57738
-3.12099
-32.0899
-32.6543
-33.2096
-34.0293
-35.5679
-38.2841
-42.553
-48.6499
-56.7505
-66.9109
-79.066
-93.0086
-108.377
-124.662
-141.22
-157.304
-172.119
-184.879
-194.872
-201.506
-204.318
-203.002
-197.148
-186.004
-168.444
-143.177
-109.431
-68.4328
-25.417
9.3617
23.8222
13.9218
-39.4609
-40.0247
-40.0417
-39.8487
-40.1074
-41.4877
-44.5073
-49.5328
-56.7653
-66.2618
-77.9382
-91.5612
-106.743
-122.948
-139.509
-155.665
-170.609
-183.549
-193.772
-200.687
-203.832
-202.846
-197.294
-186.556
-169.452
-144.174
-109.138
-64.3406
-14.0558
30.7607
54.2905
47.093
-47.0276
-47.6669
-46.8714
-45.181
-43.6263
-43.1991
-44.6048
-48.2831
-54.455
-63.1575
-74.2677
-87.5091
-102.454
-118.533
-135.053
-151.235
-166.26
-179.329
-189.719
-196.823
-200.161
-199.313
-193.67
-182.442
-164.395
-137.817
-100.241
-50.1278
9.66998
68.0937
105.347
104.408
-55.3743
-56.1223
-54.0152
-50.1091
-46.0567
-43.2921
-42.737
-44.8619
-49.8731
-57.752
-68.3083
-81.2017
-95.9509
-111.944
-128.461
-144.701
-159.835
-173.048
-183.597
-190.841
-194.246
-193.348
-187.298
-174.99
-154.881
-124.736
-81.8971
-23.8978
49.0013
126.563
185.072
196.813
-65.7183
-66.3917
-61.9923
-54.7573
-47.3274
-41.6614
-38.8595
-39.3328
-43.2008
-50.3373
-60.4499
-73.113
-87.7796
-103.791
-120.395
-136.772
-152.076
-165.478
-176.2
-183.548
-186.904
-185.687
-178.951
-164.966
-141.681
-106.148
-54.6706
16.2222
107.222
211.676
303.128
338.844
-80.7123
-80.3495
-71.6137
-59.2575
-47.3264
-38.2166
-32.9964
-31.8637
-34.7377
-41.3187
-51.1771
-63.7847
-78.5213
-94.6795
-111.476
-128.072
-143.608
-157.231
-168.126
-175.527
-178.698
-176.874
-169.097
-152.791
-125.176
-82.3442
-19.2057
69.6078
187.212
328.566
470.06
549.331
-106.457
-101.421
-83.9005
-63.4985
-45.7023
-32.7412
-25.1331
-22.6251
-24.7957
-31.1027
-40.9522
-53.7056
-68.6709
-85.0954
-102.169
-119.039
-134.83
-148.67
-159.699
-167.069
-169.907
-167.231
-157.823
-138.556
-105.484
-53.5447
24.0834
135.374
287.444
481.038
695.283
852.086
-157.52
-134.653
-98.7099
-65.9131
-41.0764
-24.2893
-14.7122
-11.3784
-13.3562
-19.8098
-29.9751
-43.1136
-58.4751
-75.2751
-92.6886
-109.856
-125.895
-139.914
-151.013
-158.256
-160.616
-156.858
-145.355
-122.456
-83.1005
-20.978
72.6785
209.188
401.954
663.595
988.74
1275.36
-267.413
-179.428
-107.954
-59.1606
-27.8952
-9.10574
0.574445
3.27623
0.424214
-6.9364
-17.9508
-31.8432
-47.8515
-65.1935
-83.0533
-100.582
-116.904
-131.118
-142.29
-149.406
-151.289
-146.44
-132.776
-106.075
-60.7783
10.5249
118.35
277.614
510.4
852.3
1355.77
1961.37
-540.491
-193.309
-70.6136
-19.1491
6.29538
19.1847
24.1852
23.3291
17.763
8.30259
-4.35986
-19.5619
-36.6232
-54.8232
-73.3937
-91.5222
-108.357
-123.008
-134.526
-141.856
-143.729
-138.468
-123.592
-94.9087
-46.7419
28.793
143.027
313.066
568.12
970.429
1688.32
3162.14
VECTORS velocity double
8.33419e-05 -8.33419e-05 0
0.000170291 -3.60744e-06 0
3.65287e-05 0.00013737 0
-0.000367405 0.000266564 0
-0.000999953 0.000365983 0
-0.00180466 0.000438728 0
-0.00273572 0.000492332 0
-0.0037601 0.000532043 0
-0.0048513 0.000559161 0
-0.00598209 0.000571622 0
-0.007119 0.000565294 0
-0.00821959 0.000535294 0
-0.009232 0.000477118 0
-0.0100967 0.000387591 0
-0.01075 0.000265698 0
-0.011129 0.00011331 0
-0.011178 -6.43389e-05 0
-0.010855 -0.00025866 0
-0.0101408 -0.000455555 0
-0.00904805 -0.000637155 0
-0.00762721 -0.000783687 0
-0.00596743 -0.000876099 0
-0.00419201 -0.000899321 0
-0.00244703 -0.000845654 0
-0.00088389 -0.000717488 0
0.000362093 -0.000528495 0
0.00119348 -0.000302898 0
0.00156765 -7.12686e-05 0
0.00150774 0.000131179 0
0.00111108 0.000265482 0
0.00056105 0.000284548 0
0.000138251 0.000138251 0
6.59415e-08 -0.00016675 0
-0.000248235 0.000241152 0
-0.00105566 0.000833799 0
-0.00245852 0.00137693 0
-0.00437586 0.0018055 0
-0.00669742 0.00212548 0
-0.00932087 0.00236009 0
-0.0121579 0.00252571 0
-0.0151263 0.00262509 0
-0.018139 0.00264918 0
-0.0210962 0.00258187 0
-0.0238821 0.00240514 0
-0.026366 0.00210362 0
-0.0284085 0.00166824 0
-0.0298694 0.0010993 0
-0.0306196 0.000408936 0
-0.0305533 -0.00037737 0
-0.0296022 -0.00121971 0
-0.0277505 -0.00206044 0
-0.0250465 -0.00282897 0
-0.0216107 -0.00344847 0
-0.0176366 -0.00384521 0
-0.0133821 -0.00396013 0
-0.00915073 -0.0037612 0
-0.00526164 -0.00325418 0
-0.00201061 -0.0024888 0
0.00037327 -0.00155787 0
0.00177047 -0.000587672 0
0.00220236 0.000275611 0
0.00184718 0.000872891 0
0.00104365 0.0010307 0
0.000291022 0.000567523 0
-0.000181202 1.43861e-05 0
-0.00100617 0.00113329 0
-0.00274614 0.00248905 0
-0.00532651 0.00370491 0
-0.00860335 0.0046717 0
-0.0124217 0.00539922 0
-0.0166385 0.00592661 0
-0.0211221 0.00627978 0
-0.0257419 0.00645918 0
-0.0303577 0.00644366 0
-0.0348134 0.0062003 0
-0.0389359 0.00569501 0
-0.0425399 0.00490169 0
-0.0454367 0.00380948 0
-0.0474462 0.00242844 0
-0.0484098 0.000793629 0
-0.0482058 -0.00103242 0
-0.046764 -0.00295755 0
-0.0440789 -0.00485941 0
-0.0402212 -0.00659169 0
-0.0353463 -0.00799632 0
-0.029697 -0.00892077 0
-0.0235965 -0.00923965 0
-0.0174306 -0.00887891 0
-0.0116171 -0.00783911 0
-0.00656009 -0.00621189 0
-0.002595 -0.00418375 0
6.97834e-05 -0.00202378 0
0.00140484 -5.52189e-05 0
0.00159165 0.00137209 0
0.00102439 0.00190228 0
0.000307205 0.00116575 0
-0.000400746 0.000596334 0
-0.00191516 0.00289072 0
-0.00473278 0.0052892 0
-0.00860563 0.00735798 0
-0.0132971 0.00898699 0
-0.0186014 0.0102066 0
-0.0243398 0.0110744 0
-0.0303466 0.0116223 0
-0.0364537 0.0118435 0
-0.0424802 0.0117016 0
-0.0482283 0.0111462 0
-0.0534861 0.0101295 0
-0.0580349 0.00862003 0
-0.0616597 0.00661277 0
-0.0641617 0.00413656 0
-0.0653716 0.00125907 0
-0.065163 -0.00191047 0
-0.0634633 -0.00522103 0
-0.0602641 -0.00848027 0
-0.0556333 -0.0114593 0
-0.0497276 -0.0139093 0
-0.0427988 -0.0155859 0
-0.0351938 -0.0162801 0
-0.0273424 -0.0158557 0
-0.0197307 -0.0142876 0
-0.0128556 -0.0116955 0
-0.00716114 -0.00835966 0
-0.00296431 -0.00470949 0
-0.000384834 -0.00128404 0
0.000704832 0.00132443 0
0.000698698 0.00252333 0
0.000243816 0.00171677 0
-0.000635115 0.00163219 0
-0.00288571 0.00561987 0
-0.00684301 0.00933497 0
-0.0120539 0.0123959 0
-0.0181708 0.0147574 0
-0.0249311 0.0165008 0
-0.0321237 0.0177112 0
-0.0395569 0.0184255 0
-0.0470365 0.018627 0
-0.0543547 0.0182628 0
-0.0612885 0.0172668 0
-0.0676037 0.0155819 0
-0.0730644 0.0131771 0
-0.077443 0.0100591 0
-0.0805318 0.00628103 0
-0.0821541 0.0019468 0
-0.0821742 -0.00278672 0
-0.0805043 -0.00771437 0
-0.0771121 -0.0125784 0
-0.0720364 -0.0170675 0
-0.0654056 -0.0208376 0
-0.0574513 -0.0235407 0
-0.0485166 -0.024865 0
-0.0390538 -0.024585 0
-0.0296049 -0.0226188 0
-0.0207604 -0.0190839 0
-0.0130906 -0.0143356 0
-0.00705405 -0.00896687 0
-0.00290171 -0.00375846 0
-0.00060161 0.000409088 0
0.000195852 0.00264735 0
0.00014145 0.00210204 0
-0.000872262 0.00313957 0
-0.00386464 0.00935547 0
-0.00896124 0.0146533 0
-0.015494 0.0188213 0
-0.0229994 0.0219543 0
-0.0311583 0.0242231 0
-0.0397311 0.0257543 0
-0.0485084 0.0265928 0
-0.0572813 0.0267121 0
-0.0658287 0.0260433 0
-0.0739159 0.0245072 0
-0.0812998 0.0220407 0
-0.087737 0.0186163 0
-0.0929934 0.0142548 0
-0.0968524 0.00903312 0
-0.0991239 0.0030884 0
-0.0996513 -0.00338079 0
-0.0983158 -0.0101256 0
-0.0950422 -0.016833 0
-0.089818 -0.0231127 0
-0.0827201 -0.0285212 0
-0.0739364 -0.0325951 0
-0.063784 -0.0348976 0
-0.0527186 -0.0350807 0
-0.0413279 -0.0329628 0
-0.0302986 -0.0286137 0
-0.0203481 -0.0224262 0
-0.0121175 -0.0151434 0
-0.00604156 -0.00781022 0
-0.00223316 -0.00164765 0
-0.000424232 0.0020977 0
1.91854e-05 0.00226267 0
-0.00110238 0.00511421 0
-0.00480912 0.0140799 0
-0.0109938 0.0212101 0
-0.0187796 0.026583 0
-0.0275928 0.0305112 0
-0.0370628 0.0332952 0
-0.0469283 0.0351205 0
-0.0569705 0.036046 0
-0.0669758 0.0360372 0
-0.0767209 0.0350109 0
-0.0859703 0.0328763 0
-0.0944801 0.0295654 0
-0.102005 0.0250535 0
-0.108303 0.0193723 0
-0.113145 0.0126167 0
-0.116318 0.004949 0
-0.117631 -0.00340042 0
-0.116924 -0.0121488 0
-0.114065 -0.020942 0
-0.108977 -0.0293159 0
-0.101667 -0.0367259 0
-0.0922593 -0.0425823 0
-0.0810211 -0.0463011 0
-0.0683885 -0.0473752 0
-0.0549754 -0.0454721 0
-0.0415579 -0.0405512 0
-0.0290142 -0.0329827 0
-0.0182085 -0.0236232 0
-0.00982298 -0.0137919 0
-0.00418372 -0.00511362 0
-0.00115104 0.000722058 0
-0.000119005 0.00216285 0
-0.00131523 0.00753182 0
-0.00567773 0.0197316 0
-0.0128545 0.02892 0
-0.0217783 0.0355827 0
-0.0317782 0.0403245 0
-0.0424411 0.0436149 0
-0.0534911 0.0457163 0
-0.0647074 0.0467087 0
-0.0758804 0.0465528 0
-0.086793 0.0451529 0
-0.0972158 0.0424064 0
-0.106909 0.0382383 0
-0.115626 0.032622 0
-0.123116 0.0255925 0
-0.129132 0.0172535 0
-0.133428 0.00778134 0
-0.135774 -0.00257292 0
-0.13596 -0.0134974 0
-0.133798 -0.0246147 0
-0.129134 -0.035395 0
-0.121896 -0.0451948 0
-0.112124 -0.0532928 0
-0.100013 -0.05894 0
-0.0859462 -0.0614357 0
-0.0705312 -0.0602397 0
-0.0546079 -0.0551244 0
-0.0392117 -0.0463494 0
-0.0254602 -0.0348137 0
-0.0143521 -0.022095 0
-0.0065153 -0.0102866 0
-0.00200804 -0.00164487 0
-0.000277071 0.00176678 0
-0.00149985 0.0103469 0
-0.00642869 0.0262078 0
-0.01446 0.0376519 0
-0.024365 0.0456796 0
-0.0353923 0.0512547 0
-0.0470962 0.0550516 0
-0.0591927 0.057426 0
-0.0714652 0.0584877 0
-0.0837142 0.0581958 0
-0.0957342 0.0564426 0
-0.107307 0.0531121 0
-0.118198 0.0481174 0
-0.128161 0.0414227 0
-0.136936 0.0330566 0
-0.144251 0.0231198 0
-0.149831 0.0117919 0
-0.153403 -0.000665623 0
-0.154707 -0.0139141 0
-0.1535 -0.0275685 0
-0.149557 -0.0410475 0
-0.142719 -0.0536186 0
-0.132928 -0.0644321 0
-0.120274 -0.072566 0
-0.105051 -0.0770988 0
-0.0878145 -0.0772285 0
-0.0694205 -0.0724528 0
-0.0510313 -0.0628063 0
-0.0340255 -0.0491141 0
-0.0197799 -0.0331483 0
-0.00933151 -0.0175185 0
-0.00304325 -0.0052085 0
-0.000466754 0.00102295 0
-0.00164516 0.0134919 0
-0.00702117 0.0333677 0
-0.0157312 0.0472334 0
-0.0264218 0.0566937 0
-0.03828 0.0631262 0
-0.050836 0.06744 0
-0.0638026 0.0701006 0
-0.0769714 0.0712545 0
-0.0901565 0.0708631 0
-0.103168 0.0688066 0
-0.1158 0.0649525 0
-0.127827 0.0591962 0
-0.139005 0.0514841 0
-0.149063 0.0418279 0
-0.157714 0.0303149 0
-0.164654 0.0171172 0
-0.169572 0.00249875 0
-0.172166 -0.0131804 0
-0.172143 -0.0295322 0
-0.169221 -0.0459481 0
-0.163152 -0.0616254 0
-0.153767 -0.0756017 0
-0.14103 -0.0867879 0
-0.1251 -0.0940287 0
-0.10642 -0.0962156 0
-0.0857962 -0.0924833 0
-0.0644566 -0.0825047 0
-0.0440131 -0.0668651 0
-0.0262591 -0.0473968 0
-0.0127561 -0.0272215 0
-0.00431885 -0.0102311 0
-0.000703 -0.000146803 0
-0.00174091 0.016878 0
-0.00741799 0.0410347 0
-0.0165966 0.057455 0
-0.0278423 0.0684085 0
-0.040299 0.0757263 0
-0.0534793 0.0805762 0
-0.0670952 0.0835469 0
-0.0809479 0.0848297 0
-0.0948665 0.0843915 0
-0.108678 0.0821005 0
-0.122192 0.0778045 0
-0.135195 0.0713753 0
-0.147447 0.0627341 0
-0.158677 0.0518671 0
-0.16859 0.0388391 0
-0.176863 0.0238058 0
-0.18316 0.00702559 0
-0.187142 -0.0111312 0
-0.188487 -0.0302592 0
-0.18687 -0.0497605 0
-0.181961 -0.0687912 0
-0.173477 -0.0863045 0
-0.161232 -0.101068 0
-0.145211 -0.111699 0
-0.125679 -0.116757 0
-0.103308 -0.114936 0
-0.0792984 -0.105401 0
-0.0554267 -0.0882845 0
-0.0338999 -0.065258 0
-0.0169074 -0.0398557 0
-0.0059013 -0.0170402 0
-0.00100251 -0.00185231 0
-0.00177878 0.0203977 0
-0.00758906 0.0490023 0
-0.0169982 0.068075 0
-0.0285389 0.0805748 0
-0.0413292 0.088807 0
-0.0548684 0.094215 0
-0.0688674 0.097523 0
-0.0831357 0.0989747 0
-0.0975168 0.0985464 0
-0.111855 0.0960951 0
-0.125978 0.091447 0
-0.139689 0.0844467 0
-0.152759 0.0749849 0
-0.164929 0.0630166 0
-0.175905 0.0485778 0
-0.185366 0.0318011 0
-0.192969 0.0129305 0
-0.198356 -0.00766625 0
-0.201189 -0.0295463 0
-0.201118 -0.0521623 0
-0.19775 -0.074666 0
-0.190694 -0.0959692 0
-0.179603 -0.11474 0
-0.164251 -0.1294 0
-0.144661 -0.138178 0
-0.121275 -0.139272 0
-0.0951521 -0.131198 0
-0.0681157 -0.113396 0
-0.0427288 -0.0870604 0
-0.0218755 -0.0558991 0
-0.0078532 -0.0260253 0
-0.00138224 -0.00423705 0
-0.00175352 0.02393 0
-0.00751503 0.0570418 0
-0.0168978 0.0788275 0
-0.0284515 0.0929167 0
-0.0412852 0.102089 0
-0.0548863 0.108073 0
-0.0689615 0.111739 0
-0.0833255 0.113391 0
-0.0978349 0.113021 0
-0.112351 0.110476 0
-0.126722 0.105561 0
-0.140772 0.0980932 0
-0.154294 0.087931 0
-0.167051 0.0749964 0
-0.178771 0.0592939 0
-0.189153 0.0409286 0
-0.197871 0.0201236 0
-0.204578 -0.00276578 0
-0.208932 -0.0272598 0
-0.210573 -0.0528783 0
-0.209078 -0.0788128 0
-0.203964 -0.103992 0
-0.194725 -0.127048 0
-0.1809 -0.146269 0
-0.162213 -0.159586 0
-0.138783 -0.164681 0
-0.111387 -0.159308 0
-0.0817474 -0.141962 0
-0.0526587 -0.11297 0
-0.0277031 -0.0757988 0
-0.0102272 -0.0376237 0
-0.00185875 -0.00747804 0
-0.00166393 0.0273474 0
-0.00719057 0.0649126 0
-0.0162827 0.0894317 0
-0.027557 0.10514 0
-0.0401285 0.115271 0
-0.053473 0.121837 0
-0.0672883 0.125865 0
-0.08139 0.12773 0
-0.0956445 0.127445 0
-0.109931 0.124853 0
-0.124118 0.119742 0
-0.138058 0.111902 0
-0.151577 0.101163 0
-0.164471 0.0874154 0
-0.17651 0.0706347 0
-0.187437 0.0508974 0
-0.196967 0.0284019 0
-0.204788 0.00348401 0
-0.210576 -0.0233675 0
-0.213986 -0.0517187 0
-0.214599 -0.0808545 0
-0.211874 -0.109789 0
-0.205159 -0.137205 0
-0.193754 -0.161342 0
-0.177043 -0.179911 0
-0.154728 -0.190102 0
-0.127171 -0.188838 0
-0.0958049 -0.173438 0
-0.063472 -0.142916 0
-0.034371 -0.0999094 0
-0.0130606 -0.0522994 0
-0.00244736 -0.0117841 0
-0.00151354 0.0305249 0
-0.00662691 0.0723751 0
-0.0151707 0.0996051 0
-0.0258757 0.116946 0
-0.0378778 0.128039 0
-0.0506401 0.135176 0
-0.0638464 0.139548 0
-0.077308 0.141611 0
-0.0908981 0.141409 0
-0.104512 0.138789 0
-0.118044 0.133526 0
-0.131378 0.125392 0
-0.144379 0.114192 0
-0.156893 0.0997945 0
-0.168747 0.0821496 0
-0.179748 0.0613101 0
-0.189677 0.037448 0
-0.198288 0.0108706 0
-0.205293 -0.0179616 0
-0.210395 -0.0486129 0
-0.213221 -0.0805211 0
-0.213209 -0.11286 0
-0.209599 -0.144459 0
-0.201463 -0.173628 0
-0.187827 -0.197972 0
-0.16791 -0.214273 0
-0.141524 -0.21861 0
-0.10961 -0.206946 0
-0.0748199 -0.176531 0
-0.04179 -0.128425 0
-0.0163715 -0.0705128 0
-0.00316199 -0.0173935 0
-0.00131095 0.0333494 0
-0.00585317 0.0792062 0
-0.0136132 0.109078 0
-0.0234772 0.128043 0
-0.034616 0.140083 0
-0.0464798 0.147758 0
-0.0587336 0.152427 0
-0.0711796 0.15464 0
-0.0836949 0.154485 0
-0.096191 0.151823 0
-0.108589 0.146423 0
-0.12081 0.138048 0
-0.132763 0.12649 0
-0.144354 0.111601 0
-0.155475 0.0933188 0
-0.166013 0.0716795 0
-0.175839 0.0468336 0
-0.184797 0.0190541 0
-0.192684 -0.011254 0
-0.199273 -0.0436293 0
-0.204259 -0.0776928 0
-0.207113 -0.112847 0
-0.207021 -0.148174 0
-0.202873 -0.182197 0
-0.193345 -0.212568 0
-0.177136 -0.235804 0
-0.153393 -0.247208 0
-0.122369 -0.241285 0
-0.0862385 -0.213112 0
-0.0498 -0.161312 0
-0.0201576 -0.0926863 0
-0.00401578 -0.0245713 0
-0.00106962 0.03573 0
-0.00491641 0.0852146 0
-0.0116959 0.117609 0
-0.0204816 0.138161 0
-0.0304922 0.151113 0
-0.0411668 0.159266 0
-0.0521483 0.164154 0
-0.0632265 0.166437 0
-0.0742813 0.166259 0
-0.0852408 0.163505 0
-0.0960558 0.157954 0
-0.106685 0.149367 0
-0.117091 0.137531 0
-0.127238 0.122297 0
-0.137092 0.103599 0
-0.146625 0.0814709 0
-0.15581 0.0560526 0
-0.164605 0.0275889 0
-0.172935 -0.00357269 0
-0.180666 -0.0369896 0
-0.187578 -0.072435 0
-0.193235 -0.109594 0
-0.196842 -0.147911 0
-0.197175 -0.186274 0
-0.192613 -0.22258 0
-0.181334 -0.25328 0
-0.161748 -0.27306 0
-0.133231 -0.274975 0
-0.0971774 -0.251606 0
-0.058178 -0.198256 0
-0.0243988 -0.119164 0
-0.0050234 -0.0336105 0
-0.000807366 0.0376069 0
-0.00388045 0.0902575 0
-0.00953801 0.125003 0
-0.0170585 0.147074 0
-0.0257198 0.160873 0
-0.034954 0.169415 0
-0.0443821 0.174414 0
-0.053781 0.176654 0
-0.063034 0.17635 0
-0.0720886 0.173428 0
-0.0809278 0.167686 0
-0.0895539 0.158891 0
-0.0979818 0.14684 0
-0.106238 0.13139 0
-0.114362 0.112484 0
-0.122411 0.0901677 0
-0.130457 0.064587 0
-0.138583 0.0359758 0
-0.146849 0.00463574 0
-0.155244 -0.0290712 0
-0.16367 -0.065016 0
-0.171832 -0.103194 0
-0.179033 -0.143502 0
-0.184034 -0.185349 0
-0.185008 -0.227094 0
-0.179669 -0.265384 0
-0.165667 -0.294544 0
-0.141353 -0.306321 0
-0.107037 -0.290629 0
-0.0666535 -0.238616 0
-0.0290657 -0.150171 0
-0.00620554 -0.0448394 0
-0.000545598 0.0389599 0
-0.0028242 0.0942562 0
-0.00728999 0.131128 0
-0.0134241 0.154604 0
-0.0205713 0.169151 0
-0.0281637 0.177963 0
-0.0358052 0.182936 0
-0.0432638 0.18499 0
-0.0504305 0.184433 0
-0.0572764 0.181245 0
-0.063822 0.175253 0
-0.0701173 0.166245 0
-0.076233 0.15403 0
-0.0822579 0.138481 0
-0.0883008 0.11956 0
-0.0944953 0.097335 0
-0.101004 0.0719749 0
-0.108014 0.0437241 0
-0.115718 0.0128569 0
-0.124246 -0.0203691 0
-0.133647 -0.0558912 0
-0.143801 -0.0940031 0
-0.154187 -0.135106 0
-0.163671 -0.179261 0
-0.170362 -0.225518 0
-0.17163 -0.271031 0
-0.164414 -0.310117 0
-0.14596 -0.333516 0
-0.115206 -0.328505 0
-0.0749249 -0.281406 0
-0.0341298 -0.185764 0
-0.00759554 -0.0586405 0
-0.000308771 0.0398143 0
-0.00184026 0.097212 0
-0.00513179 0.135929 0
-0.00983837 0.160643 0
-0.0153721 0.175793 0
-0.0211759 0.184718 0
-0.0268479 0.189495 0
-0.0321572 0.191199 0
-0.0370111 0.190245 0
-0.0414126 0.186681 0
-0.0454257 0.180376 0
-0.0491534 0.171145 0
-0.0527255 0.158818 0
-0.0562939 0.143287 0
-0.0600329 0.124536 0
-0.0641422 0.102662 0
-0.0688527 0.0778662 0
-0.07443 0.0504205 0
-0.0811661 0.0206003 0
-0.089336 -0.0114147 0
-0.099136 -0.0456443 0
-0.110617 -0.0826151 0
-0.1235 -0.123224 0
-0.136889 -0.16827 0
-0.14901 -0.217696 0
-0.157089 -0.269505 0
-0.157495 -0.318452 0
-0.146379 -0.35475 0
-0.121079 -0.363325 0
-0.082669 -0.325276 0
-0.0395738 -0.225784 0
-0.00924619 -0.0754822 0
-0.000124563 0.0402476 0
-0.00103581 0.0992214 0
-0.00327381 0.139449 0
-0.00660361 0.165159 0
-0.0104948 0.180702 0
-0.014416 0.189534 0
-0.0179802 0.193915 0
-0.0209757 0.195084 0
-0.0233408 0.193579 0
-0.0251217 0.189529 0
-0.0264344 0.182854 0
-0.0274397 0.173401 0
-0.0283298 0.161025 0
-0.0293215 0.14564 0
-0.0306525 0.127253 0
-0.0325819 0.105984 0
-0.0353929 0.0820657 0
-0.0393983 0.0558037 0
-0.0449436 0.0274985 0
-0.0523947 -0.00269174 0
-0.0620634 -0.0348986 0
-0.0741542 -0.0697892 0
-0.0886492 -0.108671 0
-0.105002 -0.153081 0
-0.121772 -0.203995 0
-0.136305 -0.260595 0
-0.144666 -0.318595 0
-0.142044 -0.368345 0
-0.124051 -0.393024 0
-0.0895294 -0.368508 0
-0.0453886 -0.269789 0
-0.0112328 -0.0959612 0
-2.58313e-05 0.040398 0
-0.000538179 0.100495 0
-0.0019637 0.14184 0
-0.0040684 0.168203 0
-0.00635649 0.183837 0
-0.00834378 0.192307 0
-0.00969128 0.196053 0
-0.0102359 0.196485 0
-0.00996938 0.194276 0
-0.00899677 0.18964 0
-0.00749547 0.182554 0
-0.00568905 0.1729 0
-0.00383471 0.160562 0
-0.00221471 0.145475 0
-0.00112965 0.127664 0
-0.000894736 0.107268 0
-0.00183693 0.0845356 0
-0.00429372 0.059796 0
-0.00861608 0.0333739 0
-0.0151746 0.00544254 0
-0.024329 -0.0242098 0
-0.0363838 -0.0563325 0
-0.0515412 -0.0924753 0
-0.0696655 -0.1348 0
-0.0898432 -0.18533 0
-0.109875 -0.244695 0
-0.1259 -0.310108 0
-0.132459 -0.372894 0
-0.12347 -0.415458 0
-0.0950675 -0.408998 0
-0.0515446 -0.316963 0
-0.0136468 -0.120841 0
-5.60883e-05 0.0404799 0
-0.00050971 0.101379 0
-0.00150343 0.143375 0
-0.00263768 0.169907 0
-0.00341703 0.185201 0
-0.00343957 0.192953 0
-0.00246501 0.19578 0
-0.00042181 0.19526 0
0.00261325 0.1922 0
0.00645609 0.186901 0
0.0108544 0.179393 0
0.015512 0.169596 0
0.0201036 0.157419 0
0.0242844 0.142816 0
0.0276967 0.125825 0
0.0299776 0.106591 0
0.0307698 0.0853627 0
0.0297309 0.0624646 0
0.0265417 0.0382168 0
0.0209031 0.0127968 0
0.0125 -0.0140065 0
0.000999459 -0.0429805 0
-0.013949 -0.0757214 0
-0.0325713 -0.114807 0
-0.0545944 -0.163121 0
-0.0785992 -0.222867 0
-0.101299 -0.293211 0
-0.117109 -0.367422 0
-0.11853 -0.4285 0
-0.0986578 -0.444231 0
-0.0579206 -0.36599 0
-0.0165723 -0.15106 0
-0.000281667 0.0408177 0
-0.00117848 0.102391 0
-0.00228161 0.144459 0
-0.00279012 0.170466 0
-0.00217641 0.184808 0
-0.000180888 0.191373 0
0.00326517 0.192939 0
0.00807321 0.191249 0
0.01403 0.187219 0
0.0208507 0.181219 0
0.028202 0.173326 0
0.0357184 0.163489 0
0.0430142 0.151638 0
0.0496914 0.137739 0
0.0553472 0.121834 0
0.059586 0.104062 0
0.0620325 0.0846528 0
0.0623487 0.0638972 0
0.0602463 0.0420758 0
0.0554866 0.0193362 0
0.0478491 -0.00450537 0
0.0370961 -0.0302281 0
0.0229433 -0.0593725 0
0.00497116 -0.0945616 0
-0.0172358 -0.139137 0
-0.0432764 -0.196806 0
-0.070959 -0.26889 0
-0.0953335 -0.351558 0
-0.108113 -0.430163 0
-0.0993103 -0.471243 0
-0.0641678 -0.414857 0
-0.0200382 -0.18767 0
-0.000815851 0.0419152 0
-0.00289341 0.104268 0
-0.00482174 0.145614 0
-0.005094 0.170092 0
-0.00315676 0.182631 0
0.00099457 0.187404 0
0.00713386 0.187324 0
0.0149303 0.18426 0
0.023996 0.179185 0
0.0339243 0.172504 0
0.0442981 0.164316 0
0.0546917 0.154589 0
0.0646738 0.143261 0
0.0738116 0.130302 0
0.0816788 0.115749 0
0.0878675 0.0997203 0
0.0920044 0.082411 0
0.0937693 0.0640579 0
0.0929089 0.044878 0
0.0892384 0.0249643 0
0.0826156 0.00412682 0
0.0728673 -0.018359 0
0.0597365 -0.043958 0
0.0428362 -0.0751036 0
0.0216562 -0.115208 0
-0.00436834 -0.16867 0
-0.0347775 -0.238934 0
-0.0661697 -0.325747 0
-0.090573 -0.418791 0
-0.0953992 -0.486592 0
-0.069482 -0.460568 0
-0.0239312 -0.23164 0
-0.00186214 0.0445932 0
-0.00620673 0.108012 0
-0.00982482 0.147416 0
-0.0101795 0.168916 0
-0.00682274 0.178512 0
-0.000208613 0.180757 0
0.00898502 0.178638 0
0.0200966 0.174038 0
0.0325282 0.16791 0
0.0457441 0.160635 0
0.0592527 0.152303 0
0.0725865 0.142875 0
0.0852918 0.132287 0
0.0969271 0.120502 0
0.107069 0.10754 0
0.115321 0.0934881 0
0.121335 0.0784927 0
0.12482 0.0627255 0
0.125563 0.0463283 0
0.123419 0.0293278 0
0.118296 0.0115098 0
0.110077 -0.00777486 0
0.0985212 -0.0298556 0
0.0832167 -0.0570011 0
0.063551 -0.0924645 0
0.0386771 -0.140515 0
0.00782974 -0.205833 0
-0.0281806 -0.291446 0
-0.0634983 -0.393371 0
-0.0842868 -0.486397 0
-0.0722365 -0.498731 0
-0.0278468 -0.283418 0
-0.00377954 0.0502349 0
-0.0119514 0.114887 0
-0.0181024 0.15031 0
-0.0185086 0.166783 0
-0.0132329 0.172013 0
-0.00351719 0.170926 0
0.00933615 0.166421 0
0.0242627 0.160216 0
0.0404409 0.153122 0
0.0572238 0.145424 0
0.0740733 0.137156 0
0.0905109 0.128251 0
0.106092 0.118625 0
0.120397 0.108224 0
0.133033 0.0970408 0
0.143643 0.085125 0
0.151917 0.0725673 0
0.157611 0.0594713 0
0.160546 0.0459052 0
0.160608 0.031832 0
0.157726 0.017012 0
0.151806 0.000861257 0
0.14261 -0.0177401 0
0.129678 -0.0408803 0
0.112261 -0.0715025 0
0.0892022 -0.113544 0
0.059041 -0.171795 0
0.0207735 -0.251206 0
-0.0234949 -0.354025 0
-0.0618429 -0.466606 0
-0.069395 -0.523019 0
-0.0308246 -0.342089 0
-0.00713703 0.0611514 0
-0.0211345 0.12614 0
-0.0300355 0.154109 0
-0.0294715 0.162826 0
-0.0209069 0.16213 0
-0.00682025 0.157007 0
0.0107286 0.149938 0
0.0302705 0.142231 0
0.0508033 0.134396 0
0.0716288 0.126541 0
0.092214 0.118603 0
0.112114 0.110466 0
0.130929 0.102013 0
0.148295 0.0931649 0
0.163875 0.0838837 0
0.177371 0.0741771 0
0.188528 0.0640828 0
0.197147 0.053643 0
0.203081 0.0428647 0
0.206227 0.0316639 0
0.2065 0.0197902 0
0.20378 0.00672291 0
0.197842 -0.00846842 0
0.188176 -0.0275533 0
0.173824 -0.0530606 0
0.153288 -0.088391 0
0.124462 -0.137961 0
0.0849973 -0.207308 0
0.0339623 -0.302619 0
-0.0219014 -0.4238 0
-0.0555509 -0.524624 0
-0.0308461 -0.40376 0
-0.012545 0.0808335 0
-0.0338946 0.141805 0
-0.0433154 0.156766 0
-0.0383339 0.154623 0
-0.0233406 0.146774 0
-0.00244121 0.137376 0
0.0215968 0.127982 0
0.047064 0.119179 0
0.0729486 0.111031 0
0.098615 0.103414 0
0.123615 0.0961452 0
0.147592 0.0890475 0
0.170235 0.0819724 0
0.191264 0.0748119 0
0.21042 0.0675004 0
0.227476 0.0600086 0
0.242239 0.0523311 0
0.254551 0.0444639 0
0.264287 0.036374 0
0.271339 0.0279559 0
0.275591 0.0189739 0
0.276869 0.00898144 0
0.274877 -0.00279786 0
0.269024 -0.0177042 0
0.258181 -0.037715 0
0.240492 -0.0655111 0
0.213248 -0.104772 0
0.172984 -0.160768 0
0.116367 -0.241508 0
0.0443097 -0.35699 0
-0.0213045 -0.49217 0
-0.0238085 -0.458415 0
-0.0191499 0.112528 0
-0.0443994 0.156709 0