# vtk DataFile Version 2.0
Lid-driven cavity
ASCII
DATASET STRUCTURED_POINTS
DIMENSIONS 32 32 1
ORIGIN 0.015625 0.015625 0
SPACING 0.03125 0.03125 1
POINT_DATA 1024
SCALARS pressure double 1
LOOKUP_TABLE default
48.1218
47.9158
47.5473
47.1323
46.7416
46.4111
46.1591
45.9987
45.9445
46.0147
46.2298
46.609
47.1667
47.9071
48.8211
49.8821
51.0447
52.2467
53.4066
54.432
55.2311
55.7266
55.87
55.6525
55.1104
54.3222
53.3968
52.4587
51.6318
51.0227
50.7076
50.6955
48.3278
48.1127
47.8043
47.4701
47.1541
46.8822
46.6702
46.5313
46.4804
46.5351
46.7147
47.0373
47.5167
48.1582
48.9551
49.885
50.908
51.9703
52.9981
53.9073
54.6145
55.0499
55.1709
54.9722
54.49
53.7984
52.9973
52.1931
51.4885
50.9668
50.6876
50.6832
48.7102
48.4024
48.0827
47.7771
47.5012
47.2633
47.0704
46.9317
46.8608
46.8754
46.9957
47.2422
47.6319
48.1748
48.8696
49.7
50.6322
51.6164
52.5817
53.4452
54.1229
54.5435
54.6621
54.4721
54.0092
53.3472
52.5847
51.8258
51.1616
50.6651
50.3884
50.3724
49.1387
48.6981
48.3268
48.014
47.7469
47.5147
47.3132
47.1458
47.0244
46.9677
46.9991
47.1439
47.4257
47.862
48.4596
49.2101
50.0863
51.0394
51.9988
52.8784
53.5876
54.0465
54.2009
54.0367
53.5853
52.9207
52.1447
51.3652
50.6759
50.1459
49.8247
49.7515
49.4904
48.9021
48.4592
48.1151
47.8289
47.5717
47.3277
47.0953
46.8851
46.7181
46.6227
46.6314
46.7768
47.0867
47.5784
48.2537
49.0934
50.0493
51.051
52.0073
52.8169
53.3847
53.6396
53.551
53.1392
52.474
51.6609
50.8172
50.0476
49.429
49.0139
48.8409
49.6462
48.9092
48.3866
47.9939
47.6631
47.3479
47.0228
46.6822
46.3368
46.0111
45.7402
45.5659
45.5322
45.6794
46.0381
46.6225
47.4256
48.4033
49.4881
50.5839
51.5758
52.3474
52.801
52.8783
52.576
51.9507
51.1075
50.1764
49.2824
48.5231
47.9647
47.6542
49.4877
48.6087
48.0041
47.5491
47.1486
46.7404
46.2911
45.7923
45.2563
44.7123
44.2034
43.7826
43.5072
43.4329
43.6065
44.0587
44.7983
45.796
46.9931
48.2909
49.5603
50.6581
51.4489
51.8313
51.761
51.2648
50.4376
49.4216
48.3714
47.4215
46.6693
46.1843
48.8972
47.8881
47.2018
46.6714
46.1751
45.636
45.0143
44.3001
43.5078
42.6723
41.846
41.0939
40.4891
40.1057
40.0109
40.2567
40.8723
41.8578
43.1751
44.7295
46.3796
47.9509
49.2598
50.1432
50.4921
50.2788
49.5685
48.5079
47.2896
46.1049
45.1071
44.4024
47.7616
46.6385
45.8715
45.2514
44.6307
43.9193
43.0717
42.0767
40.9511
39.7358
38.4924
37.2998
36.2486
35.4351
34.9517
34.878
35.2699
36.1688
37.5809
39.4253
41.5538
43.7612
45.8062
47.4453
48.4757
48.7808
48.3637
47.3566
45.9911
44.5379
43.2375
42.2602
45.9795
44.7616
43.9145
43.1885
42.4122
41.4831
40.3502
39.001
37.4539
35.7549
33.975
32.2072
30.5625
29.1628
28.1321
27.5844
27.6104
28.2974
29.7312
31.8596
34.5398
37.5412
40.5615
43.2607
45.3118
46.4659
46.6168
45.8438
44.4055
42.6715
41.0109
39.696
43.4691
42.1787
41.2515
40.4014
39.4355
38.2401
36.7583
34.9751
32.9092
30.6102
28.1575
25.6589
23.2472
21.0742
19.3015
18.0871
17.5685
17.8629
19.1854
21.5346
24.7903
28.7101
32.9366
37.0254
40.499
42.9292
44.0379
43.7896
42.4329
40.4446
38.3707
36.6405
40.1766
38.8384
37.8308
36.8374
35.6472
34.1359
32.2406
29.9417
27.2562
24.2352
20.9653
17.5683
14.2003
11.0465
8.31181
6.20603
4.92386
4.62132
5.63142
8.06621
11.8475
16.7422
22.3556
28.1457
33.4707
37.6806
40.2532
40.9509
39.9403
37.7864
35.2606
33.026
36.0838
34.7243
33.6368
32.4822
31.0349
29.1618
26.7925
23.9016
20.5014
16.6424
12.4159
7.95699
3.44515
-0.89891
-4.82257
-8.05753
-10.3438
-11.4615
-11.0183
-8.70601
-4.53964
1.28558
8.36871
16.0959
23.669
30.1908
34.8258
37.0259
36.7614
34.6217
31.6356
28.7992
31.2126
29.8595
28.6949
27.3654
25.6355
23.364
20.4728
16.9285
12.7366
7.9441
2.64457
-3.01561
-8.83418
-14.5545
-19.874
-24.4613
-27.9834
-30.143
-30.5368
-28.6125
-24.294
-17.7059
-9.21264
0.54714
10.6559
19.9751
27.3065
31.6773
32.7056
30.8797
27.4754
23.9371
25.6267
24.3082
23.0733
21.5637
19.5379
16.8486
13.4093
9.17713
4.14848
-1.63604
-8.08289
-15.0369
-22.2751
-29.5062
-36.3783
-42.4958
-47.4481
-50.8488
-52.3206
-51.0797
-46.918
-39.8599
-30.1854
-18.4934
-5.75141
6.70893
17.3181
24.5817
27.5829
26.5105
22.8055
18.4692
19.4286
18.172
16.8799
15.1975
12.8818
9.78029
5.79824
0.881829
-4.98363
-11.766
-19.3746
-27.648
-36.3454
-45.1443
-53.6464
-61.3956
-67.9071
-72.7093
-75.3932
-75.1217
-71.4649
-64.3291
-53.8681
-40.5678
-25.3493
-9.6412
4.6665
15.5078
21.249
21.5141
17.7247
12.5075
12.7514
11.5819
10.2537
8.42301
5.84864
2.37366
-2.10558
-7.65488
-14.3017
-22.0243
-30.7369
-40.2746
-50.382
-60.7094
-70.818
-80.1977
-88.2983
-94.5728
-98.5328
-99.4293
-96.6027
-89.8253
-79.0956
-64.7187
-47.4579
-28.7011
-10.5392
4.41647
13.6739
15.9845
12.4446
6.28576
5.74751
4.68631
3.35234
1.41909
-1.35149
-5.12164
-10.0055
-16.0826
-23.3946
-31.932
-41.6155
-52.2789
-63.6552
-75.372
-86.956
-97.8527
-107.458
-115.16
-120.398
-122.53
-120.771
-114.757
-104.321
-89.539
-70.9118
-49.6245
-27.7859
-8.43179
5.02989
10.1729
7.34362
0.21514
-1.42646
-2.36459
-3.66384
-5.6291
-8.49704
-12.4393
-17.5846
-24.0292
-31.8311
-40.9941
-51.447
-63.0234
-75.4473
-88.3274
-101.163
-113.363
-124.283
-133.266
-139.695
-143.003
-142.409
-137.46
-127.824
-113.335
-94.1565
-71.1138
-46.1091
-22.3868
-4.2098
4.57251
3.04239
-5.03668
-8.6265
-9.43597
-10.6492
-12.5475
-15.3728
-19.3158
-24.5282
-31.1282
-39.1933
-48.7421
-59.7113
-71.9351
-85.1298
-98.8883
-112.687
-125.909
-137.88
-147.917
-155.375
-159.689
-160.217
-156.469
-147.986
-134.381
-115.452
-91.5443
-64.126
-36.3619
-13.1774
0.0245463
0.511969
-8.42639
-15.7385
-16.4262
-17.4903
-19.1892
-21.7855
-25.5074
-30.5435
-37.0435
-45.1083
-54.7716
-65.9772
-78.5586
-92.2248
-106.555
-121.008
-134.946
-147.674
-158.495
-166.755
-171.886
-173.372
-170.767
-163.572
-151.21
-133.142
-109.178
-80.159
-48.854
-20.5413
-2.15849
1.22529
-8.35592
-22.6961
-23.2849
-24.121
-25.4473
-27.5752
-30.8014
-35.3747
-41.4881
-49.271
-58.771
-69.935
-82.5918
-96.4428
-111.055
-125.872
-140.241
-153.454
-164.804
-173.635
-179.387
-181.608
-179.941
-173.92
-162.856
-145.929
-122.423
-92.4338
-58.0382
-24.4818
-0.0644685
7.35985
-2.41276
-29.5013
-30.033
-30.5373
-31.2623
-32.619
-35.0218
-38.8107
-44.2364
-51.461
-60.5409
-71.424
-83.9323
-97.7494
-112.425
-127.385
-141.962
-155.441
-167.106
-176.305
-182.487
-185.213
-184.184
-179.006
-168.973
-153.048
-130.053
-99.2976
-61.9223
-22.7253
8.93024
22.0461
12.9827
-36.2544
-36.7898
-36.8108
-36.6242
-36.8283
-38.0275
-40.6906
-45.1498
-51.5907
-60.0706
-70.521
-82.7406
-96.3895
-110.994
-125.961
-140.609
-154.212
-166.051
-175.472
-181.927
-184.979
-184.278
-179.409
-169.784
-154.307
-131.321
-99.3851
-58.5149
-12.638
28.224
49.6348
43.02
-43.2104
-43.8179
-43.1067
-41.5695
-40.1375
-39.7052
-40.9105
-44.152
-49.6327
-57.3921
-67.3272
-79.1981
-92.6293
-107.117
-122.044
-136.715
-150.391
-162.349
-171.927
-178.562
-181.802
-181.248
-176.325
-166.296
-150.011
-125.884
-91.6573
-45.9389
8.64516
61.9677
95.9314
95.0135
-50.9045
-51.6135
-49.7165
-46.1764
-42.4869
-39.941
-39.3717
-41.2055
-45.6317
-52.6402
-62.0675
-73.6163
-86.8629
-101.266
-116.183
-130.9
-144.669
-156.752
-166.471
-173.234
-176.54
-175.951
-170.681
-159.704
-141.59
-114.275
-75.3114
-22.4313
44.1043
114.92
168.317
178.965
-60.4503
-61.0925
-57.1167
-50.5607
-43.8124
-38.638
-36.0303
-36.363
-39.7466
-46.0737
-55.0891
-66.419
-79.5803
-93.9892
-108.975
-123.806
-137.719
-149.963
-159.831
-166.682
-169.942
-169.067
-163.186
-150.709
-129.746
-97.5801
-50.8116
13.7531
96.7692
192.132
275.628
308.165
-74.27
-73.9668
-66.0491
-54.8428
-44.0086
-35.7069
-30.8998
-29.7677
-32.2395
-38.0511
-46.8236
-58.0905
-71.3029
-85.8327
-100.981
-115.999
-130.11
-142.543
-152.556
-159.446
-162.531
-161.103
-154.275
-139.706
-114.834
-76.0668
-18.7315
62.1046
169.32
298.332
427.525
499.841
-97.926
-93.3581
-77.4391
-58.9112
-42.741
-30.9333
-23.9493
-21.5574
-23.3779
-28.9274
-37.6785
-49.065
-62.4727
-77.2324
-92.6212
-107.875
-122.206
-134.824
-144.946
-151.797
-154.571
-152.363
-144.048
-126.792
-96.9705
-49.9383
20.5602
121.835
260.424
437.048
632.66
775.791
-144.692
-123.847
-91.128
-61.3036
-38.7177
-23.4229
-14.639
-11.4848
-13.1183
-18.7901
-27.8178
-39.5447
-53.3036
-68.3961
-84.0851
-99.5997
-114.146
-126.917
-137.091
-143.815
-146.145
-142.944
-132.719
-112.156
-76.6174
-20.3156
64.7766
189.02
364.688
603.347
900.129
1161.9
-245.113
-164.818
-99.6749
-55.2623
-26.8174
-9.69679
-0.816646
1.76493
-0.66167
-7.15611
-16.954
-29.3644
-43.7094
-59.2919
-75.3832
-91.2217
-106.019
-118.959
-129.191
-135.789
-137.675
-133.472
-121.274
-97.2424
-56.2795
8.40016
106.419
251.417
463.585
775.451
1234.93
1787.73
-494.465
-177.511
-65.6082
-18.7647
4.35812
16.0854
20.6873
20.016
15.108
6.69388
-4.61044
-18.2174
-33.5236
-49.8881
-66.6255
-83.0075
-98.2672
-111.598
-122.139
-128.924
-130.792
-126.207
-112.902
-87.0509
-43.4571
25.0964
128.975
283.818
516.319
883.323
1538.51
2883.85
VECTORS velocity double
8.33324e-05 -8.33324e-05 0
0.000170259 -3.59454e-06 0
3.64763e-05 0.000137377 0
-0.000367464 0.000266563 0
-0.001 0.000365974 0
-0.00180469 0.000438711 0
-0.00273571 0.000492308 0
-0.00376003 0.000532013 0
-0.00485117 0.000559126 0
-0.00598188 0.000571584 0
-0.00711872 0.000565254 0
-0.00821922 0.000535254 0
-0.00923156 0.000477081 0
-0.0100962 0.000387559 0
-0.0107494 0.000265674 0
-0.0111284 0.000113296 0
-0.0111774 -6.43405e-05 0
-0.0108544 -0.000258648 0
-0.0101402 -0.000455529 0
-0.00904755 -0.000637116 0
-0.00762679 -0.000783638 0
-0.00596711 -0.000876043 0
-0.0041918 -0.000899264 0
-0.00244694 -0.000845601 0
-0.000883892 -0.000717445 0
0.000362017 -0.000528465 0
0.00119337 -0.000302884 0
0.00156752 -7.127e-05 0
0.00150762 0.000131165 0
0.001111 0.00026546 0
0.000561011 0.000284527 0
0.000138242 0.000138242 0
5.31452e-08 -0.000166718 0
-0.000248271 0.000241188 0
-0.0010557 0.000833809 0
-0.00245854 0.00137691 0
-0.00437581 0.00180544 0
-0.00669726 0.00212539 0
-0.00932058 0.00235997 0
-0.0121575 0.00252556 0
-0.0151257 0.00262493 0
-0.0181382 0.002649 0
-0.0210952 0.00258168 0
-0.0238808 0.00240497 0
-0.0263646 0.00210346 0
-0.0284069 0.00166811 0
-0.0298677 0.00109921 0
-0.0306179 0.000408889 0
-0.0305515 -0.000377363 0
-0.0296005 -0.00121965 0
-0.0277489 -0.00206031 0
-0.025045 -0.00282879 0
-0.0216095 -0.00344825 0
-0.0176356 -0.00384497 0
-0.0133814 -0.00395988 0
-0.00915028 -0.00376097 0
-0.00526142 -0.00325399 0
-0.00201059 -0.00248866 0
0.000373161 -0.00155779 0
0.0017703 -0.000587657 0
0.00220217 0.000275572 0
0.00184703 0.000872818 0
0.00104357 0.00103062 0
0.000291001 0.000567484 0
-0.000181206 1.44349e-05 0
-0.00100617 0.00113332 0
-0.00274609 0.00248902 0
-0.00532636 0.0037048 0
-0.00860306 0.00467151 0
-0.0124212 0.00539895 0
-0.0166378 0.00592628 0
-0.0211211 0.0062794 0
-0.0257405 0.00645877 0
-0.0303561 0.00644323 0
-0.0348115 0.00619987 0
-0.0389337 0.00569461 0
-0.0425375 0.00490133 0
-0.0454341 0.0038092 0
-0.0474434 0.00242826 0
-0.048407 0.000793551 0
-0.048203 -0.00103238 0
-0.0467613 -0.00295738 0
-0.0440764 -0.00485912 0
-0.0402189 -0.00659128 0
-0.0353444 -0.00799583 0
-0.0296954 -0.00892022 0
-0.0235952 -0.00923908 0
-0.0174297 -0.00887838 0
-0.0116165 -0.00783865 0
-0.00655979 -0.00621154 0
-0.00259493 -0.00418353 0
6.97152e-05 -0.0020237 0
0.00140471 -5.52576e-05 0
0.00159153 0.00137197 0
0.00102432 0.00190214 0
0.000307183 0.00116567 0
-0.000400734 0.000596375 0
-0.00191509 0.0028907 0
-0.00473258 0.00528906 0
-0.00860524 0.0073577 0
-0.0132965 0.00898657 0
-0.0186005 0.0102061 0
-0.0243386 0.0110738 0
-0.030345 0.0116216 0
-0.0364517 0.0118428 0
-0.0424778 0.0117008 0
-0.0482255 0.0111454 0
-0.053483 0.0101288 0
-0.0580316 0.00861944 0
-0.0616561 0.00661232 0
-0.064158 0.00413628 0
-0.0653679 0.00125898 0
-0.0651593 -0.00191035 0
-0.0634597 -0.0052207 0
-0.0602607 -0.00847975 0
-0.0556303 -0.0114586 0
-0.0497249 -0.0139085 0
-0.0427965 -0.015585 0
-0.0351918 -0.0162792 0
-0.0273409 -0.0158547 0
-0.0197296 -0.0142867 0
-0.0128549 -0.0116949 0
-0.00716077 -0.00835921 0
-0.00296417 -0.00470926 0
-0.000384833 -0.00128402 0
0.000704779 0.0013243 0
0.000698652 0.00252314 0
0.000243801 0.00171665 0
-0.000635083 0.00163219 0
-0.00288556 0.00561972 0
-0.00684264 0.00933462 0
-0.0120532 0.0123954 0
-0.0181698 0.0147567 0
-0.0249297 0.0164999 0
-0.0321219 0.0177102 0
-0.0395546 0.0184244 0
-0.0470337 0.0186259 0
-0.0543516 0.0182616 0
-0.0612849 0.0172657 0
-0.0675998 0.015581 0
-0.0730603 0.0131762 0
-0.0774387 0.0100585 0
-0.0805273 0.00628067 0
-0.0821496 0.00194671 0
-0.0821697 -0.00278651 0
-0.0805 -0.00771387 0
-0.077108 -0.0125776 0
-0.0720326 -0.0170665 0
-0.0654021 -0.0208364 0
-0.0574482 -0.0235393 0
-0.0485141 -0.0248636 0
-0.0390517 -0.0245836 0
-0.0296033 -0.0226175 0
-0.0207593 -0.0190828 0
-0.0130898 -0.0143348 0
-0.00705365 -0.00896641 0
-0.00290154 -0.00375831 0
-0.000601565 0.000409006 0
0.000195847 0.00264715 0
0.000141444 0.0021019 0
-0.000872209 0.00313948 0
-0.0038644 0.0093551 0
-0.0089607 0.0146526 0
-0.0154931 0.0188204 0
-0.0229981 0.0219532 0
-0.0311564 0.0242218 0
-0.0397287 0.0257528 0
-0.0485055 0.0265912 0
-0.0572779 0.0267105 0
-0.0658249 0.0260417 0
-0.0739117 0.0245057 0
-0.0812952 0.0220394 0
-0.0877322 0.0186152 0
-0.0929884 0.014254 0
-0.0968473 0.00903269 0
-0.0991187 0.00308833 0
-0.0996462 -0.00338049 0
-0.0983109 -0.0101249 0
-0.0950375 -0.016832 0
-0.0898136 -0.0231113 0
-0.0827161 -0.0285196 0
-0.0739328 -0.0325933 0
-0.0637809 -0.0348957 0
-0.052716 -0.0350788 0
-0.0413258 -0.032961 0
-0.030297 -0.0286121 0
-0.020347 -0.022425 0
-0.0121168 -0.0151426 0
-0.00604119 -0.00780984 0
-0.00223301 -0.00164762 0
-0.00042419 0.00209754 0
1.91896e-05 0.00226253 0
-0.00110231 0.005114 0
-0.0048088 0.0140793 0
-0.0109931 0.0212091 0
-0.0187785 0.0265816 0
-0.0275911 0.0305095 0
-0.0370606 0.0332933 0
-0.0469256 0.0351185 0
-0.0569672 0.0360439 0
-0.0669719 0.0360351 0
-0.0767166 0.0350088 0
-0.0859656 0.0328744 0
-0.0944751 0.0295637 0
-0.101999 0.0250522 0
-0.108298 0.0193713 0
-0.113139 0.0126162 0
-0.116312 0.00494895 0
-0.117626 -0.00340001 0
-0.116919 -0.0121479 0
-0.11406 -0.0209407 0
-0.108973 -0.0293142 0
-0.101663 -0.0367238 0
-0.0922552 -0.04258 0
-0.0810174 -0.0462987 0
-0.0683854 -0.0473728 0
-0.0549728 -0.0454697 0
-0.0415559 -0.0405492 0
-0.0290128 -0.0329811 0
-0.0182075 -0.023622 0
-0.00982242 -0.0137912 0
-0.00418345 -0.00511339 0
-0.00115096 0.000721995 0
-0.000118991 0.00216273 0
-0.00131514 0.00753145 0
-0.00567735 0.0197305 0
-0.0128537 0.0289185 0
-0.021777 0.0355808 0
-0.0317762 0.0403222 0
-0.0424386 0.0436125 0
-0.053488 0.0457137 0
-0.0647037 0.046706 0
-0.0758762 0.0465502 0
-0.0867884 0.0451505 0
-0.0972109 0.0424042 0
-0.106904 0.0382364 0
-0.11562 0.0326205 0
-0.123111 0.0255915 0
-0.129126 0.0172529 0
-0.133422 0.00778132 0
-0.135769 -0.0025724 0
-0.135955 -0.0134964 0
-0.133792 -0.0246132 0
-0.129129 -0.035393 0
-0.121891 -0.0451924 0
-0.11212 -0.0532901 0
-0.100009 -0.0589371 0
-0.0859427 -0.0614327 0
-0.0705282 -0.0602368 0
-0.0546055 -0.0551217 0
-0.0392099 -0.0463472 0
-0.025459 -0.034812 0
-0.0143514 -0.0220939 0
-0.00651493 -0.0102861 0
-0.00200791 -0.00164479 0
-0.000277048 0.00176669 0
-0.00149975 0.0103463 0
-0.00642827 0.0262064 0
-0.0144591 0.0376498 0
-0.0243635 0.0456771 0
-0.0353903 0.0512519 0
-0.0470936 0.0550485 0
-0.0591894 0.0574229 0
-0.0714614 0.0584845 0
-0.0837099 0.0581927 0
-0.0957295 0.0564397 0
-0.107302 0.0531095 0
-0.118193 0.0481152 0
-0.128156 0.0414211 0
-0.13693 0.0330554 0
-0.144245 0.0231193 0
-0.149826 0.011792 0
-0.153397 -0.000665007 0
-0.154702 -0.0139129 0
-0.153495 -0.0275667 0
-0.149552 -0.0410453 0
-0.142714 -0.0536159 0
-0.132923 -0.064429 0
-0.120269 -0.0725627 0
-0.105048 -0.0770953 0
-0.0878113 -0.0772251 0
-0.0694179 -0.0724496 0
-0.0510293 -0.0628035 0
-0.034024 -0.0491118 0
-0.019779 -0.0331468 0
-0.00933105 -0.0175177 0
-0.00304308 -0.00520823 0
-0.000466723 0.00102292 0
-0.00164505 0.0134911 0
-0.00702073 0.0333658 0
-0.0157302 0.0472308 0
-0.0264203 0.0566906 0
-0.0382779 0.0631228 0
-0.0508333 0.0674364 0
-0.0637993 0.0700969 0
-0.0769676 0.0712508 0
-0.0901523 0.0708596 0
-0.103163 0.0688034 0
-0.115795 0.0649497 0
-0.127822 0.0591939 0
-0.138999 0.0514823 0
-0.149058 0.0418267 0
-0.157709 0.0303144 0
-0.164649 0.0171173 0
-0.169567 0.00249947 0
-0.172161 -0.0131791 0
-0.172138 -0.0295303 0
-0.169216 -0.0459456 0
-0.163147 -0.0616225 0
-0.153763 -0.0755983 0
-0.141026 -0.0867843 0
-0.125096 -0.0940248 0
-0.106417 -0.0962117 0
-0.0857935 -0.0924795 0
-0.0644544 -0.0825013 0
-0.0440114 -0.0668623 0
-0.0262581 -0.0473947 0
-0.0127556 -0.0272202 0
-0.00431864 -0.0102306 0
-0.000702961 -0.000146766 0
-0.0017408 0.016877 0
-0.00741755 0.0410323 0
-0.0165956 0.0574518 0
-0.0278408 0.0684048 0
-0.0402969 0.0757223 0
-0.0534766 0.080572 0
-0.0670921 0.0835427 0
-0.0809444 0.0848256 0
-0.0948626 0.0843876 0
-0.108673 0.0820969 0
-0.122187 0.0778014 0
-0.13519 0.0713728 0
-0.147442 0.0627322 0
-0.158673 0.0518659 0
-0.168585 0.0388386 0
-0.176858 0.023806 0
-0.183155 0.00702643 0
-0.187138 -0.0111297 0
-0.188483 -0.0302571 0
-0.186866 -0.0497579 0
-0.181957 -0.0687881 0
-0.173473 -0.0863009 0
-0.161228 -0.101064 0
-0.145208 -0.111695 0
-0.125676 -0.116753 0
-0.103305 -0.114932 0
-0.0792962 -0.105397 0
-0.0554249 -0.0882811 0
-0.0338988 -0.0652554 0
-0.0169068 -0.039854 0
-0.00590106 -0.0170394 0
-0.00100246 -0.00185219 0
-0.00177868 0.0203965 0
-0.00758866 0.0489996 0
-0.0169974 0.0680713 0
-0.0285375 0.0805706 0
-0.0413273 0.0888025 0
-0.054866 0.0942104 0
-0.0688646 0.0975183 0
-0.0831324 0.0989702 0
-0.0975133 0.0985422 0
-0.111851 0.0960913 0
-0.125974 0.0914438 0
-0.139685 0.0844441 0
-0.152755 0.074983 0
-0.164925 0.0630154 0
-0.175901 0.0485774 0
-0.185362 0.0318014 0
-0.192965 0.0129315 0
-0.198353 -0.00766462 0
-0.201186 -0.0295441 0
-0.201114 -0.0521595 0
-0.197747 -0.0746627 0
-0.190691 -0.0959655 0
-0.1796 -0.114736 0
-0.164248 -0.129396 0
-0.144658 -0.138174 0
-0.121273 -0.139267 0
-0.0951499 -0.131193 0
-0.0681139 -0.113392 0
-0.0427276 -0.0870572 0
-0.0218748 -0.0558969 0
-0.00785292 -0.0260242 0
-0.00138218 -0.00423683 0
-0.00175344 0.0239286 0
-0.00751469 0.0570387 0
-0.0168971 0.0788233 0
-0.0284503 0.0929119 0
-0.0412836 0.102084 0
-0.0548842 0.108068 0
-0.068959 0.111734 0
-0.0833228 0.113386 0
-0.097832 0.113016 0
-0.112348 0.110472 0
-0.126719 0.105558 0
-0.140769 0.0980906 0
-0.154291 0.0879292 0
-0.167048 0.0749954 0
-0.178768 0.0592936 0
-0.189151 0.0409291 0
-0.197869 0.0201248 0
-0.204575 -0.00276399 0
-0.20893 -0.0272574 0
-0.210572 -0.0528754 0
-0.209076 -0.0788095 0
-0.203962 -0.103988 0
-0.194723 -0.127044 0
-0.180897 -0.146265 0
-0.162211 -0.159581 0
-0.13878 -0.164676 0
-0.111385 -0.159303 0
-0.0817458 -0.141958 0
-0.0526575 -0.112966 0
-0.0277024 -0.0757961 0
-0.0102269 -0.0376223 0
-0.00185868 -0.00747769 0
-0.00166387 0.0273459 0
-0.00719031 0.0649091 0
-0.0162821 0.0894272 0
-0.027556 0.105135 0
-0.0401272 0.115265 0
-0.0534713 0.121832 0
-0.0672863 0.12586 0
-0.0813878 0.127725 0
-0.0956422 0.127441 0
-0.109928 0.124849 0
-0.124116 0.119739 0
-0.138056 0.1119 0
-0.151575 0.101161 0
-0.164469 0.0874146 0
-0.176509 0.0706346 0
-0.187436 0.0508981 0
-0.196966 0.0284032 0
-0.204788 0.00348596 0
-0.210576 -0.0233651 0
-0.213986 -0.0517158 0
-0.214599 -0.0808512 0
-0.211873 -0.109786 0
-0.205158 -0.137201 0
-0.193753 -0.161338 0
-0.177041 -0.179906 0
-0.154726 -0.190097 0
-0.12717 -0.188833 0
-0.0958035 -0.173433 0
-0.0634708 -0.142911 0
-0.0343703 -0.0999063 0
-0.0130603 -0.0522976 0
-0.00244729 -0.0117837 0
-0.00151351 0.0305233 0
-0.00662674 0.0723714 0
-0.0151703 0.0996002 0
-0.025875 0.116941 0
-0.0378768 0.128033 0
-0.0506389 0.13517 0
-0.063845 0.139543 0
-0.0773065 0.141606 0
-0.0908965 0.141404 0
-0.10451 0.138785 0
-0.118043 0.133523 0
-0.131377 0.125389 0
-0.144378 0.114191 0
-0.156892 0.0997939 0
-0.168747 0.0821499 0
-0.179748 0.0613111 0
-0.189678 0.0374496 0
-0.198289 0.0108728 0
-0.205294 -0.0179591 0
-0.210395 -0.04861 0
-0.213221 -0.080518 0
-0.213209 -0.112857 0
-0.209599 -0.144455 0
-0.201463 -0.173625 0
-0.187827 -0.197968 0
-0.167909 -0.214268 0
-0.141523 -0.218605 0
-0.109609 -0.206941 0
-0.074819 -0.176527 0
-0.0417894 -0.128421 0
-0.0163712 -0.0705106 0
-0.00316191 -0.0173929 0
-0.00131094 0.0333477 0
-0.0058531 0.0792023 0
-0.0136129 0.109073 0
-0.0234768 0.128037 0
-0.0346154 0.140077 0
-0.0464791 0.147752 0
-0.0587328 0.152421 0
-0.0711787 0.154635 0
-0.0836941 0.154481 0
-0.0961903 0.151819 0
-0.108589 0.14642 0
-0.120809 0.138046 0
-0.132763 0.126489 0
-0.144354 0.111601 0
-0.155476 0.0933194 0
-0.166014 0.0716809 0
-0.17584 0.0468356 0
-0.184799 0.0190565 0
-0.192686 -0.0112513 0
-0.199275 -0.0436264 0
-0.204261 -0.0776899 0
-0.207115 -0.112844 0
-0.207023 -0.148171 0
-0.202874 -0.182193 0
-0.193346 -0.212564 0
-0.177136 -0.235799 0
-0.153393 -0.247203 0
-0.122368 -0.241281 0
-0.0862377 -0.213107 0
-0.0497994 -0.161309 0
-0.0201573 -0.0926838 0
-0.00401571 -0.0245705 0
-0.00106964 0.0357283 0
-0.00491644 0.0852107 0
-0.0116959 0.117604 0
-0.0204816 0.138156 0
-0.030492 0.151107 0
-0.0411665 0.15926 0
-0.0521481 0.164148 0
-0.0632263 0.166432 0
-0.0742812 0.166254 0
-0.085241 0.163501 0
-0.0960562 0.157952 0
-0.106686 0.149365 0
-0.117092 0.13753 0
-0.127239 0.122297 0
-0.137094 0.1036 0
-0.146628 0.0814726 0
-0.155813 0.0560548 0
-0.164609 0.0275915 0
-0.172938 -0.00356992 0
-0.18067 -0.0369868 0
-0.187581 -0.0724322 0
-0.193238 -0.109591 0
-0.196845 -0.147908 0
-0.197177 -0.186271 0
-0.192615 -0.222577 0
-0.181335 -0.253276 0
-0.161749 -0.273056 0
-0.133231 -0.27497 0
-0.097177 -0.251602 0
-0.0581776 -0.198252 0
-0.0243986 -0.119162 0
-0.00502333 -0.0336095 0
-0.000807405 0.0376053 0
-0.00388058 0.0902536 0
-0.0095382 0.124998 0
-0.0170587 0.147068 0
-0.02572 0.160867 0
-0.0349543 0.169409 0
-0.0443824 0.174409 0
-0.0537815 0.176649 0
-0.0630347 0.176346 0
-0.0720895 0.173424 0
-0.080929 0.167683 0
-0.0895554 0.15889 0
-0.0979838 0.14684 0
-0.10624 0.131391 0
-0.114365 0.112486 0
-0.122414 0.0901699 0
-0.130461 0.0645896 0
-0.138587 0.0359786 0
-0.146853 0.00463864 0
-0.155248 -0.0290684 0
-0.163674 -0.0650134 0
-0.171836 -0.103192 0
-0.179037 -0.1435 0
-0.184037 -0.185347 0
-0.18501 -0.227091 0
-0.179671 -0.265381 0
-0.165667 -0.294541 0
-0.141354 -0.306317 0
-0.107037 -0.290625 0
-0.0666533 -0.238612 0
-0.0290655 -0.150168 0
-0.00620548 -0.0448384 0
-0.000545659 0.0389584 0
-0.00282441 0.0942525 0
-0.00729037 0.131122 0
-0.0134247 0.154598 0
-0.0205719 0.169145 0
-0.0281645 0.177957 0
-0.0358061 0.18293 0
-0.0432649 0.184985 0
-0.0504317 0.184429 0
-0.057278 0.181242 0
-0.0638239 0.175251 0
-0.0701196 0.166244 0
-0.0762356 0.15403 0
-0.0822609 0.138482 0
-0.0883042 0.119562 0
-0.0944991 0.0973375 0
-0.101008 0.0719778 0
-0.108018 0.0437272 0
-0.115722 0.0128599 0
-0.12425 -0.0203663 0
-0.133652 -0.0558887 0
-0.143805 -0.094001 0
-0.154191 -0.135104 0
-0.163675 -0.179259 0
-0.170365 -0.225516 0
-0.171632 -0.271029 0
-0.164415 -0.310114 0
-0.145961 -0.333512 0
-0.115206 -0.328501 0
-0.0749248 -0.281402 0
-0.0341296 -0.185761 0
-0.00759548 -0.0586393 0
-0.000308849 0.0398129 0
-0.00184055 0.0972084 0
-0.00513234 0.135924 0
-0.00983915 0.160637 0
-0.0153731 0.175787 0
-0.0211771 0.184712 0
-0.0268493 0.18949 0
-0.0321589 0.191194 0
-0.037013 0.190241 0
-0.0414147 0.186678 0
-0.0454282 0.180374 0
-0.0491562 0.171145 0
-0.0527286 0.158818 0
-0.0562973 0.143288 0
-0.0600366 0.124538 0
-0.0641462 0.102665 0
-0.0688569 0.0778694 0
-0.0744344 0.0504238 0
-0.0811706 0.0206035 0
-0.0893406 -0.0114119 0
-0.0991406 -0.045642 0
-0.110621 -0.0826132 0
-0.123505 -0.123222 0
-0.136893 -0.168269 0
-0.149013 -0.217695 0
-0.157091 -0.269504 0
-0.157497 -0.31845 0
-0.14638 -0.354747 0
-0.121079 -0.363322 0
-0.0826692 -0.325273 0
-0.0395738 -0.225781 0
-0.00924615 -0.075481 0
-0.000124655 0.0402464 0
-0.00103616 0.0992181 0
-0.0032745 0.139445 0
-0.00660463 0.165154 0
-0.0104962 0.180696 0
-0.0144176 0.189528 0
-0.017982 0.19391 0
-0.0209778 0.195079 0
-0.0233432 0.193576 0
-0.0251244 0.189527 0
-0.0264373 0.182852 0
-0.0274429 0.1734 0
-0.0283333 0.161026 0
-0.0293252 0.145642 0
-0.0306564 0.127255 0
-0.0325859 0.105987 0
-0.035397 0.0820691 0
-0.0394025 0.0558071 0
-0.0449478 0.0275017 0
-0.052399 -0.00268898 0
-0.0620676 -0.0348964 0
-0.0741582 -0.0697875 0
-0.088653 -0.10867 0
-0.105006 -0.15308 0
-0.121775 -0.203994 0
-0.136308 -0.260594 0
-0.144669 -0.318594 0
-0.142046 -0.368343 0
-0.124052 -0.393022 0
-0.0895298 -0.368505 0
-0.0453886 -0.269786 0
-0.0112328 -0.0959599 0
-2.59327e-05 0.040397 0
-0.000538577 0.100492 0
-0.00196451 0.141835 0
-0.00406962 0.168198 0
-0.00635808 0.183832 0
-0.00834571 0.192302 0
-0.00969352 0.196048 0
-0.0102384 0.196481 0
-0.00997219 0.194273 0
-0.00899983 0.189638 0
-0.00749876 0.182553 0
-0.00569254 0.172899 0
-0.00383836 0.160563 0
-0.00221847 0.145477 0
-0.00113348 0.127667 0
-0.000898585 0.107271 0
-0.00184076 0.084539 0
-0.0042975 0.0597994 0
-0.00861978 0.0333771 0
-0.0151782 0.00544525 0
-0.0243325 -0.0242076 0
-0.0363872 -0.0563309 0
-0.0515445 -0.0924742 0
-0.0696687 -0.134799 0
-0.0898462 -0.185329 0
-0.109877 -0.244694 0
-0.125902 -0.310107 0
-0.132461 -0.372893 0
-0.123471 -0.415456 0
-0.095068 -0.408995 0
-0.0515448 -0.31696 0
-0.0136468 -0.12084 0
-5.61955e-05 0.0404791 0
-0.000510142 0.101376 0
-0.00150432 0.143371 0
-0.00263905 0.169902 0
-0.00341886 0.185196 0
-0.0034418 0.192948 0
-0.0024676 0.195775 0
-0.000424729 0.195256 0
0.00261004 0.192197 0
0.00645264 0.186899 0
0.0108508 0.179392 0
0.0155082 0.169596 0
0.0200998 0.15742 0
0.0242806 0.142818 0
0.0276929 0.125828 0
0.029974 0.106594 0
0.0307663 0.085366 0
0.0297276 0.0624678 0
0.0265387 0.0382198 0
0.0209002 0.0127994 0
0.0124972 -0.0140044 0
0.000996777 -0.042979 0
-0.0139517 -0.0757204 0
-0.0325739 -0.114806 0
-0.054597 -0.163121 0
-0.0786016 -0.222866 0
-0.101301 -0.293211 0
-0.117111 -0.367421 0
-0.118531 -0.428498 0
-0.0986585 -0.444229 0
-0.0579208 -0.365987 0
-0.0165723 -0.151059 0
-0.000281777 0.0408171 0
-0.00117894 0.102389 0
-0.00228257 0.144456 0
-0.00279162 0.170461 0
-0.00217842 0.184803 0
-0.000183371 0.191369 0
0.00326227 0.192935 0
0.00806994 0.191246 0
0.0140265 0.187216 0
0.0208469 0.181217 0
0.028198 0.173325 0
0.0357144 0.16349 0
0.0430103 0.151639 0
0.0496875 0.137741 0
0.0553436 0.121837 0
0.0595825 0.104065 0
0.0620294 0.0846558 0
0.0623459 0.0639002 0
0.0602437 0.0420785 0
0.0554843 0.0193386 0
0.047847 -0.00450345 0
0.0370941 -0.0302266 0
0.0229414 -0.0593715 0
0.00496919 -0.0945609 0
-0.0172379 -0.139136 0
-0.0432784 -0.196806 0
-0.0709609 -0.26889 0
-0.0953351 -0.351557 0
-0.108114 -0.430161 0
-0.0993111 -0.471242 0
-0.0641681 -0.414855 0
-0.0200382 -0.187669 0
-0.000815961 0.0419148 0
-0.00289387 0.104267 0
-0.00482273 0.145611 0
-0.00509558 0.170088 0
-0.00315891 0.182627 0
0.000991879 0.1874 0
0.00713069 0.18732 0
0.0149268 0.184257 0
0.0239921 0.179183 0
0.0339202 0.172502 0
0.0442939 0.164315 0
0.0546875 0.154589 0
0.0646697 0.143262 0
0.0738077 0.130303 0
0.0816752 0.115751 0
0.0878641 0.0997228 0
0.0920015 0.0824136 0
0.0937668 0.0640605 0
0.0929068 0.0448804 0
0.0892365 0.0249664 0
0.082614 0.00412858 0
0.0728658 -0.0183576 0
0.0597351 -0.043957 0
0.0428347 -0.0751029 0
0.0216547 -0.115207 0
-0.00436989 -0.16867 0
-0.0347791 -0.238934 0
-0.0661712 -0.325747 0
-0.0905742 -0.41879 0
-0.0954 -0.486591 0
-0.0694824 -0.460567 0
-0.0239313 -0.231639 0
-0.00186225 0.0445931 0
-0.00620718 0.108011 0
-0.00982581 0.147414 0
-0.0101811 0.168913 0
-0.00682498 0.178509 0
-0.000211446 0.180753 0
0.00898166 0.178634 0
0.0200927 0.174036 0
0.032524 0.167907 0
0.0457398 0.160633 0
0.0592483 0.152302 0
0.072582 0.142875 0
0.0852875 0.132288 0
0.0969231 0.120503 0
0.107065 0.107541 0
0.115318 0.0934901 0
0.121332 0.078495 0
0.124818 0.0627277 0
0.125561 0.0463304 0
0.123418 0.0293297 0
0.118294 0.0115113 0
0.110076 -0.00777363 0
0.0985201 -0.0298547 0
0.0832156 -0.0570004 0
0.0635499 -0.092464 0
0.038676 -0.140515 0
0.00782853 -0.205833 0
-0.0281819 -0.291446 0
-0.0634994 -0.393371 0
-0.0842876 -0.486396 0
-0.0722368 -0.498729 0
-0.0278469 -0.283417 0
-0.00377964 0.0502349 0
-0.0119518 0.114886 0
-0.0181034 0.150309 0
-0.0185101 0.166781 0
-0.0132351 0.17201 0
-0.00352007 0.170923 0
0.00933268 0.166419 0
0.0242588 0.160214 0
0.0404365 0.15312 0
0.0572192 0.145422 0
0.0740687 0.137155 0
0.0905063 0.128251 0
0.106088 0.118626 0
0.120393 0.108225 0
0.133029 0.0970421 0
0.143639 0.0851266 0
0.151915 0.0725691 0
0.157609 0.0594731 0
0.160544 0.0459069 0
0.160607 0.0318335 0
0.157724 0.0170133 0
0.151805 0.000862328 0
0.142609 -0.0177392 0
0.129677 -0.0408796 0
0.11226 -0.071502 0
0.0892013 -0.113544 0
0.0590401 -0.171795 0
0.0207726 -0.251206 0
-0.0234958 -0.354025 0
-0.0618436 -0.466606 0
-0.0693954 -0.523018 0
-0.0308247 -0.342088 0
-0.0071371 0.0611517 0
-0.0211348 0.12614 0
-0.0300363 0.154109 0
-0.0294729 0.162824 0
-0.0209089 0.162128 0
-0.006823 0.157005 0
0.0107253 0.149936 0
0.0302666 0.142229 0
0.050799 0.134395 0
0.0716242 0.12654 0
0.0922093 0.118603 0
0.112109 0.110466 0
0.130925 0.102014 0
0.148291 0.0931655 0
0.163871 0.0838847 0
0.177367 0.0741783 0
0.188525 0.0640841 0
0.197144 0.0536443 0
0.203079 0.042866 0
0.206226 0.0316651 0
0.206499 0.0197912 0
0.203779 0.00672379 0
0.197841 -0.00846769 0
0.188175 -0.0275527 0
0.173823 -0.0530601 0
0.153287 -0.0883906 0
0.124461 -0.137961 0
0.0849966 -0.207308 0
0.0339616 -0.302619 0
-0.021902 -0.4238 0
-0.0555513 -0.524623 0
-0.0308462 -0.403759 0
-0.012545 0.0808338 0
-0.0338947 0.141805 0
-0.0433159 0.156766 0
-0.0383349 0.154622 0
-0.0233423 0.146773 0
-0.00244356 0.137375 0
0.0215938 0.12798 0
0.0470605 0.119177 0
0.0729447 0.11103 0
0.0986107 0.103413 0
0.12361 0.0961447 0
0.147587 0.0890473 0
0.170231 0.0819724 0
0.191259 0.0748122 0
0.210416 0.0675009 0
0.227473 0.0600094 0
0.242236 0.0523319 0
0.254548 0.0444648 0
0.264284 0.0363749 0
0.271337 0.0279568 0
0.275589 0.0189747 0
0.276867 0.00898211 0
0.274876 -0.00279729 0
0.269023 -0.0177037 0
0.25818 -0.0377146 0
0.240491 -0.0655107 0
0.213248 -0.104771 0
0.172983 -0.160768 0
0.116367 -0.241508 0
0.0443092 -0.35699 0
-0.0213048 -0.49217 0