# vtk DataFile Version 2.0
Lid-driven cavity
ASCII
DATASET STRUCTURED_POINTS
DIMENSIONS 32 32 1
ORIGIN 0.015625 0.015625 0
SPACING 0.03125 0.03125 1
POINT_DATA 1024
SCALARS pressure double 1
LOOKUP_TABLE default
2.90074
2.87382
2.84687
2.83543
2.84652
2.88251
2.94358
3.02921
3.13876
3.27167
3.42741
3.60527
3.80418
4.02245
4.25759
4.50613
4.76361
5.02465
5.28294
5.53127
5.76215
5.96846
6.14408
6.2846
6.38786
6.45417
6.48642
6.48978
6.47146
6.4405
6.40804
6.38758
2.92766
2.90017
2.88107
2.87789
2.89506
2.93452
2.99682
3.0819
3.18948
3.31919
3.47062
3.64307
3.83548
4.04619
4.27277
4.51189
4.75927
5.00991
5.25788
5.49639
5.71839
5.91723
6.08724
6.22441
6.32685
6.39509
6.43198
6.44247
6.43315
6.41179
6.38693
6.36711
2.95492
2.91773
2.89818
2.89805
2.91861
2.96048
3.02376
3.10841
3.21428
3.34123
3.48898
3.65705
3.84454
4.04997
4.27111
4.50484
4.74705
4.99297
5.23684
5.47188
5.69106
5.88768
6.05602
6.19206
6.29396
6.36235
6.4002
6.41247
6.40542
6.38588
6.3605
6.33466
2.96476
2.91623
2.8928
2.89262
2.91448
2.95752
3.0212
3.10523
3.2095
3.33403
3.47878
3.64352
3.82764
4.02999
4.24864
4.48074
4.72237
4.96879
5.21418
5.45151
5.67341
5.87271
6.04325
6.18064
6.28282
6.35045
6.38673
6.39685
6.38719
6.36428
6.33393
6.30022
2.94574
2.88676
2.85848
2.85675
2.8785
2.9217
2.98513
3.06824
3.17093
3.29336
3.43573
3.59816
3.78042
3.98175
4.20064
4.43459
4.67991
4.9317
5.18386
5.42896
5.65897
5.86593
6.04283
6.1845
6.28844
6.35519
6.38822
6.39331
6.37743
6.34757
6.30973
6.26806
2.88998
2.82194
2.7889
2.78502
2.80587
2.84848
2.91112
2.99303
3.0941
3.21466
3.3552
3.51621
3.6979
3.9
4.12149
4.36033
4.61318
4.8748
5.13873
5.39701
5.64073
5.8608
6.0489
6.19866
6.30671
6.37325
6.40212
6.39995
6.37491
6.33521
6.28792
6.23822
2.79144
2.71562
2.67825
2.67207
2.69157
2.73309
2.79451
2.87491
2.97425
3.09302
3.23204
3.39217
3.57413
3.77821
4.00398
4.24998
4.51344
4.7888
5.06919
5.3461
5.6096
5.8491
6.05448
6.21756
6.33347
6.40171
6.42633
6.41518
6.37825
6.3258
6.26677
6.20804
2.64513
2.56253
2.52123
2.51275
2.53064
2.57067
2.63042
2.70893
2.80619
2.92291
3.0602
3.21936
3.40163
3.60792
3.83849
4.09267
4.36846
4.6605
4.96141
5.26233
5.55226
5.81882
6.04948
6.2334
6.36329
6.43712
6.4588
6.43757
6.38598
6.31731
6.24332
6.17316
2.44662
2.35797
2.31307
2.30226
2.31825
2.35632
2.41384
2.48976
2.58418
2.69797
2.83254
2.98959
3.1709
3.37807
3.61221
3.8736
4.16131
4.47116
4.79536
5.12511
5.44856
5.75137
6.01796
6.23368
6.38741
6.47417
6.49675
6.46562
6.39665
6.30745
6.21387
6.12817
2.19193
2.09774
2.0494
2.03611
2.04977
2.08521
2.13958
2.21178
2.30192
2.411
2.54066
2.69295
2.87019
3.07471
3.30861
3.57339
3.86948
4.19518
4.54291
4.90473
5.26857
5.61824
5.93455
6.19771
6.39072
6.5033
6.53516
6.49706
6.40871
6.29377
6.17422
6.06687
1.87741
1.77808
1.7263
1.71017
1.72083
1.75264
1.80249
1.86915
1.95269
2.05409
2.17509
2.318
2.48559
2.68097
2.90739
3.16789
3.46485
3.79935
4.16655
4.5604
4.96983
5.37751
5.76045
6.09231
6.3476
6.50725
6.56432
6.52746
6.41998
6.27368
6.11982
5.98233
1.49985
1.39565
1.34029
1.32078
1.32749
1.35425
1.39766
1.45621
1.52975
1.6191
1.72587
1.85241
2.00182
2.17793
2.38527
2.6288
2.91348
3.24343
3.61965
4.03974
4.49592
4.97135
5.43979
5.86735
6.21709
6.45643
6.56613
6.54791
6.42668
6.24422
6.04579
5.86688
1.0565
0.947656
0.888439
0.864816
0.866351
0.88631
0.920807
0.96792
1.02704
1.09853
1.18356
1.28423
1.40366
1.54629
1.71796
1.92592
2.17846
2.48384
2.84933
3.28104
3.77779
4.32605
4.89815
5.45263
5.93847
6.30394
6.50955
6.54178
6.42177
6.20175
5.94707
5.7122
0.545195
0.431836
0.368413
0.339856
0.334873
0.346029
0.368802
0.400594
0.440041
0.486657
0.540776
0.603756
0.678359
0.769269
0.883588
1.03113
1.22425
1.47689
1.8026
2.21925
2.73919
3.35631
4.04503
4.75811
5.42911
5.98162
6.34591
6.48074
6.39279
6.14144
5.81877
5.50976
-0.0356401
-0.153456
-0.22145
-0.255705
-0.26846
-0.268015
-0.259767
-0.247289
-0.233085
-0.218943
-0.205917
-0.193967
-0.181304
-0.163497
-0.132511
-0.0759181
0.0233202
0.185996
0.434126
0.796131
1.3074
1.97542
2.78246
3.67988
4.58719
5.39938
6.00587
6.32108
6.31939
6.05692
5.65714
5.25193
-0.686973
-0.809333
-0.882177
-0.922602
-0.943929
-0.955549
-0.964026
-0.974268
-0.990353
-1.01589
-1.05395
-1.10652
-1.17352
-1.25154
-1.33219
-1.40071
-1.43507
-1.4064
-1.28132
-1.02443
-0.570883
0.111702
1.02079
2.11384
3.30162
4.45052
5.40034
6.00196
6.17148
5.94042
5.46158
4.93429
-1.40936
-1.53657
-1.61433
-1.66078
-1.69053
-1.71436
-1.74037
-1.7752
-1.82497
-1.89566
-1.99298
-2.12171
-2.28437
-2.47944
-2.69913
-2.92703
-3.13642
-3.2899
-3.34153
-3.24237
-2.91107
-2.27055
-1.29916
-0.0228865
1.47057
3.02527
4.42798
5.44776
5.90949
5.78405
5.23813
4.55976
-2.20329
-2.336
-2.41837
-2.46965
-2.50607
-2.54025
-2.58224
-2.64087
-2.72475
-2.84274
-3.0038
-3.21618
-3.48586
-3.81425
-4.19523
-4.61193
-5.03384
-5.41544
-5.69739
-5.81205
-5.6725
-5.14907
-4.18084
-2.76487
-0.972143
1.03337
2.9914
4.57726
5.48856
5.58356
5.00558
4.14563
-3.06985
-3.20922
-3.29529
-3.34861
-3.38757
-3.42723
-3.4802
-3.55798
-3.6721
-3.8347
-4.05842
-4.35554
-4.73618
-5.20558
-5.7605
-6.38502
-7.0465
-7.69267
-8.2516
-8.63602
-8.74816
-8.42715
-7.54974
-6.07124
-4.02701
-1.56639
1.02214
3.3212
4.86935
5.34643
4.8056
3.73541
-4.01169
-4.15963
-4.24757
-4.2978
-4.33178
-4.368
-4.42239
-4.50969
-4.64473
-4.8432
-5.1216
-5.49648
-5.98244
-6.58918
-7.31733
-8.15341
-9.06464
-9.99453
-10.861
-11.5591
-11.9701
-11.9284
-11.2421
-9.80656
-7.60245
-4.73512
-1.48822
1.64844
4.037
5.10684
4.71949
3.41868
-5.0346
-5.194
-5.28056
-5.3192
-5.33606
-5.35457
-5.39515
-5.47647
-5.61699
-5.83594
-6.15364
-6.59066
-7.166
-7.8939
-8.77936
-9.81252
-10.9625
-12.1715
-13.3515
-14.384
-15.1275
-15.4126
-15.0123
-13.739
-11.5018
-8.33014
-4.45743
-0.402405
3.02888
4.9499
4.89508
3.36427
-6.14979
-6.32487
-6.40443
-6.41802
-6.39926
-6.37904
-6.38392
-6.43736
-6.56164
-6.77939
-7.11416
-7.58995
-8.22946
-9.05089
-10.0635
-11.2614
-12.6171
-14.0748
-15.5446
-16.9007
-17.985
-18.6145
-18.5618
-17.5616
-15.4321
-12.0985
-7.6914
-2.69213
1.96838
5.04631
5.58781
3.87251
-7.3776
-7.57411
-7.63691
-7.60441
-7.52276
-7.43427
-7.37399
-7.37115
-7.4519
-7.64166
-7.96632
-8.45209
-9.12408
-10.0033
-11.1022
-12.4187
-13.9294
-15.5822
-17.2898
-18.9258
-20.3247
-21.2884
-21.5905
-20.9388
-19.0399
-15.6953
-10.8817
-4.95973
1.09876
5.69511
7.21746
5.45168
-8.75387
-8.97879
-9.00724
-8.89539
-8.71102
-8.514
-8.35086
-8.25739
-8.26318
-8.39531
-8.68052
-9.14557
-9.81617
-10.7144
-11.8546
-13.2375
-14.843
-16.6235
-18.4965
-20.3401
-21.9907
-23.2438
-23.8639
-23.5678
-21.9673
-18.7263
-13.6266
-6.81853
0.808433
7.3673
10.437
8.91928
-10.3416
-10.6011
-10.5618
-10.3168
-9.97144
-9.61196
-9.29954
-9.07641
-8.97399
-9.01903
-9.23702
-9.65325
-10.2925
-11.1764
-12.3194
-13.7228
-15.3683
-17.2108
-19.1724
-21.1371
-22.9477
-24.405
-25.2669
-25.2397
-23.9145
-20.8052
-15.4699
-7.77129
1.63976
10.7385
16.2029
15.5233
-12.2541
-12.5459
-12.3721
-11.9038
-11.3113
-10.7182
-10.2016
-9.80742
-9.56505
-9.49747
-9.62582
-9.97184
-10.5576
-11.4025
-12.5194
-13.9084
-15.551
-17.4031
-19.389
-21.3966
-23.2745
-24.8298
-25.8237
-25.9353
-24.7304
-21.6071
-15.9444
-7.2366
4.27986
16.6973
25.8283
27.076
-14.7053
-14.9924
-14.5434
-13.6958
-12.7277
-11.809
-11.027
-10.4222
-10.0143
-9.81656
-9.84173
-10.1057
-10.626
-11.4184
-12.4926
-13.8463
-15.4589
-17.2851
-19.2491
-21.2394
-23.1055
-24.6555
-25.6499
-25.7529
-24.4525
-21.0383
-14.673
-4.5777
9.53784
26.3158
40.9947
46.0938
-18.1258
-18.249
-17.2141
-15.7104
-14.1778
-12.8213
-11.7135
-10.869
-10.2837
-9.95152
-9.87328
-10.0565
-10.5124
-11.252
-12.2808
-13.5927
-15.1639
-16.9461
-18.8605
-20.7924
-22.5865
-24.0419
-24.9044
-24.8241
-23.1787
-19.1176
-11.5556
0.652591
18.3016
40.769
63.6805
75.9464
-23.451
-22.8232
-20.4953
-17.8526
-15.4996
-13.5919
-12.1214
-11.0374
-10.2871
-9.8382
-9.67588
-9.79744
-10.2068
-10.9092
-11.905
-13.1835
-14.7164
-16.451
-18.3035
-20.1524
-21.8315
-23.1216
-23.7369
-23.2913
-21.0288
-15.9065
-6.57109
8.54481
30.9626
61.1679
95.8986
121.01
-32.861
-29.3508
-24.1596
-19.638
-16.2235
-13.734
-11.9363
-10.6663
-9.81402
-9.3122
-9.12523
-9.23794
-9.64636
-10.3498
-11.3438
-12.6131
-14.1247
-15.8209
-17.6115
-19.3659
-20.9029
-21.9774
-22.2581
-21.2858
-18.1563
-11.619
-0.0356168
18.6655
46.9954
87.4285
139.482
186.65
-51.4383
-37.3666
-26.5003
-19.4835
-15.0894
-12.2855
-10.4523
-9.25179
-8.50302
-8.11062
-8.02761
-8.23411
-8.72381
-9.49431
-10.5393
-11.8412
-13.3641
-15.0465
-16.7925
-18.4623
-19.8592
-20.7095
-20.6304
-19.0554
-14.9643
-6.96722
6.82733
29.0427
63.5251
116.357
196.296
293.692
-96.1656
-39.856
-20.6904
-13.2822
-9.87353
-8.06343
-7.02049
-6.42231
-6.13372
-6.09809
-6.29588
-6.72573
-7.39376
-8.30584
-9.46102
-10.8452
-12.4245
-14.1379
-15.8885
-17.5331
-18.8664
-19.5968
-19.3033
-17.3399
-12.6849
-3.90495
11.0148
35.0489
73.1678
135.698
250.023
487.129
VECTORS velocity double
3.64858e-05 -3.64859e-05 0
-2.49443e-06 7.54661e-05 0
-0.000281133 0.000203173 0
-0.000783801 0.000299495 0
-0.00144396 0.000360667 0
-0.00219968 0.000395054 0
-0.00300638 0.000411645 0
-0.00383455 0.000416522 0
-0.00466353 0.000412458 0
-0.00547561 0.000399626 0
-0.00625179 0.000376551 0
-0.00696935 0.000341005 0
-0.00760111 0.000290757 0
-0.00811607 0.000224208 0
-0.0084812 0.00014092 0
-0.00866415 4.20251e-05 0
-0.00863647 -6.97025e-05 0
-0.00837713 -0.000189635 0
-0.00787722 -0.000310276 0
-0.00714476 -0.000422189 0
-0.00620772 -0.000514848 0
-0.00511501 -0.000577861 0
-0.00393459 -0.000602557 0
-0.00274834 -0.000583694 0
-0.00164373 -0.000520918 0
-0.000703278 -0.000419534 0
6.60779e-06 -0.000290352 0
0.000445787 -0.000148827 0
0.000608586 -1.39717e-05 0
0.000531464 9.10928e-05 0
0.000303908 0.000136463 0
8.37221e-05 8.37219e-05 0
-8.01402e-05 7.16848e-06 0
-0.000509883 0.000500534 0
-0.00147203 0.00101889 0
-0.00290305 0.00141746 0
-0.00468021 0.00168002 0
-0.00668169 0.00183289 0
-0.00880845 0.00190727 0
-0.0109848 0.00192546 0
-0.0131505 0.00189821 0
-0.0152512 0.00182665 0
-0.0172312 0.0017057 0
-0.0190293 0.00152748 0
-0.0205776 0.00128439 0
-0.0218037 0.00097157 0
-0.022634 0.00058906 0
-0.0230006 0.00014335 0
-0.0228473 -0.000351999 0
-0.0221385 -0.000875476 0
-0.0208668 -0.00139598 0
-0.0190604 -0.00187536 0
-0.0167876 -0.00227158 0
-0.0141582 -0.00254325 0
-0.0113201 -0.00265566 0
-0.00844966 -0.00258727 0
-0.00573605 -0.00233557 0
-0.00336062 -0.00192076 0
-0.00147364 -0.001386 0
-0.000171377 -0.000794622 0
0.000523701 -0.000226055 0
0.000678307 0.000225691 0
0.000459061 0.000448667 0
0.00014166 0.000309104 0
-0.000236894 0.000324202 0
-0.00114353 0.00151988 0
-0.00284343 0.0026616 0
-0.00517483 0.00353716 0
-0.00796163 0.00412428 0
-0.0110435 0.00447195 0
-0.0142877 0.00463916 0
-0.0175869 0.00466919 0
-0.0208502 0.00458351 0
-0.0239931 0.0043849 0
-0.0269297 0.00406405 0
-0.029569 0.00360651 0
-0.0318143 0.00299898 0
-0.0335659 0.00223459 0
-0.0347266 0.00131714 0
-0.0352092 0.000264383 0
-0.0349454 -0.000890137 0
-0.0338955 -0.00209602 0
-0.0320567 -0.00328584 0
-0.0294703 -0.00437835 0
-0.0262274 -0.00528431 0
-0.0224718 -0.00591551 0
-0.0183967 -0.00619662 0
-0.0142347 -0.00607876 0
-0.01024 -0.00555241 0
-0.00666258 -0.00465673 0
-0.00371723 -0.00348237 0
-0.00155079 -0.00216695 0
-0.000213802 -0.000885787 0
0.00036009 0.000156925 0
0.000365442 0.000731326 0
0.000129261 0.000580026 0
-0.000390692 0.000951788 0
-0.00177243 0.00318067 0
-0.00420186 0.00513014 0
-0.00739501 0.00659317 0
-0.0111126 0.00757262 0
-0.0151591 0.00815201 0
-0.0193779 0.00842206 0
-0.0236404 0.00844804 0
-0.0278346 0.00826221 0
-0.0318545 0.00786897 0
-0.0355929 0.00725497 0
-0.038938 0.00639998 0
-0.0417738 0.0052866 0
-0.0439836 0.00390839 0
-0.0454558 0.0022763 0
-0.0460917 0.000423684 0
-0.0458147 -0.00159028 0
-0.0445796 -0.00368086 0
-0.04238 -0.00573934 0
-0.0392563 -0.00763504 0
-0.0353036 -0.00922319 0
-0.0306777 -0.0103581 0
-0.0255951 -0.0109117 0
-0.0203258 -0.0107951 0
-0.0151751 -0.00998158 0
-0.0104551 -0.00852489 0
-0.00644689 -0.00656774 0
-0.0033576 -0.00433731 0
-0.00128147 -0.00212855 0
-0.000172448 -0.000283221 0
0.000168032 0.00082564 0
9.03184e-05 0.000799605 0
-0.000531577 0.00187406 0
-0.00235674 0.00546531 0
-0.0054733 0.00839149 0
-0.00947287 0.0105245 0
-0.0140484 0.0119343 0
-0.0189696 0.0127581 0
-0.0240603 0.0131254 0
-0.0291783 0.0131251 0
-0.0341989 0.0127999 0
-0.0390033 0.0121556 0
-0.0434716 0.011175 0
-0.0474795 0.00983295 0
-0.0508994 0.00810934 0
-0.0536036 0.00599966 0
-0.0554698 0.00352346 0
-0.0563882 0.000730847 0
-0.0562701 -0.00229262 0
-0.0550552 -0.00542846 0
-0.0527191 -0.00852742 0
-0.0492826 -0.0114072 0
-0.0448248 -0.0138615 0
-0.039494 -0.0156764 0
-0.0335141 -0.0166558 0
-0.0271816 -0.0166527 0
-0.0208512 -0.0156052 0
-0.0149048 -0.0135677 0
-0.00970664 -0.0107313 0
-0.00554735 -0.00742233 0
-0.00258941 -0.00407761 0
-0.000827374 -0.00120522 0
-7.178e-05 0.000651566 0
4.48441e-05 0.000934768 0
-0.000658499 0.00306413 0
-0.00288722 0.00832912 0
-0.00663409 0.0123911 0
-0.0113751 0.0152655 0
-0.0167379 0.0171316 0
-0.0224596 0.0182037 0
-0.0283488 0.0186597 0
-0.0342553 0.0186154 0
-0.0400495 0.0181245 0
-0.0456078 0.0171938 0
-0.0508051 0.0158024 0
-0.0555118 0.0139201 0
-0.0595936 0.0115239 0
-0.0629145 0.00861014 0
-0.0653407 0.0052054 0
-0.0667469 0.00137362 0
-0.0670229 -0.00277761 0
-0.0660797 -0.00710147 0
-0.0638571 -0.0114131 0
-0.0603363 -0.0154788 0
-0.0555596 -0.0190246 0
-0.0496483 -0.0217554 0
-0.0428182 -0.0233869 0
-0.0353838 -0.0236884 0
-0.0277498 -0.0225339 0
-0.0203816 -0.0199536 0
-0.0137524 -0.0161727 0
-0.0082718 -0.0116209 0
-0.00420737 -0.00690146 0
-0.0016231 -0.00272767 0
-0.000351856 0.000147182 0
-4.47037e-06 0.000975141 0
-0.000772043 0.00449468 0
-0.00336311 0.0117184 0
-0.00767873 0.0170643 0
-0.0130926 0.0207471 0
-0.0191746 0.0230949 0
-0.0256343 0.0244218 0
-0.0322697 0.0249661 0
-0.038929 0.0248748 0
-0.0454839 0.0242142 0
-0.0518135 0.0229919 0
-0.0577943 0.0211824 0
-0.0632964 0.0187489 0
-0.0681819 0.0156624 0
-0.0723058 0.0119164 0
-0.075519 0.00753859 0
-0.0776722 0.00259993 0
-0.078622 -0.00277819 0
-0.0782364 -0.00842969 0
-0.0764018 -0.0141421 0
-0.0730406 -0.0196319 0
-0.0681374 -0.0245515 0
-0.0617672 -0.0285098 0
-0.0541196 -0.0311102 0
-0.0455149 -0.0320043 0
-0.0364047 -0.0309623 0
-0.0273479 -0.0279502 0
-0.0189552 -0.023198 0
-0.0117989 -0.0172325 0
-0.00630337 -0.0108497 0
-0.00264606 -0.005021 0
-0.000704617 -0.000772178 0
-6.4086e-05 0.000906584 0
-0.00087246 0.00613918 0
-0.00378423 0.0155767 0
-0.00860536 0.0223427 0
-0.0146225 0.0268996 0
-0.0213579 0.0297599 0
-0.0285004 0.031359 0
-0.0358434 0.0320074 0
-0.0432394 0.0318888 0
-0.0505681 0.0310838 0
-0.0577172 0.029601 0
-0.0645707 0.0274077 0
-0.0710017 0.0244568 0
-0.0768696 0.0207078 0
-0.0820182 0.0161434 0
-0.0862766 0.0107831 0
-0.0894619 0.004694 0
-0.0913844 -0.00200003 0
-0.0918558 -0.00912202 0
-0.0906972 -0.0164429 0
-0.0877558 -0.0236337 0
-0.0829406 -0.030268 0
-0.0762598 -0.0358443 0
-0.0678561 -0.039827 0
-0.0580362 -0.0417121 0
-0.0472849 -0.0411159 0
-0.0362548 -0.0378833 0
-0.0257145 -0.0321978 0
-0.0164457 -0.0246578 0
-0.00909484 -0.0162708 0
-0.00401809 -0.00833403 0
-0.0011796 -0.00223907 0
-0.000144575 0.000697923 0
-0.000959199 0.00797084 0
-0.00414839 0.019846 0
-0.00940946 0.0281556 0
-0.0159583 0.0336527 0
-0.0232808 0.0370647 0
-0.0310526 0.0389685 0
-0.039069 0.0397574 0
-0.0471924 0.0396581 0
-0.0553164 0.0387672 0
-0.0633428 0.0370932 0
-0.0711668 0.034593 0
-0.0786671 0.0312029 0
-0.0856996 0.0268621 0
-0.0920932 0.0215314 0
-0.0976489 0.0152092 0
-0.102141 0.0079454 0
-0.105323 -0.000146714 0
-0.106942 -0.00888539 0
-0.106744 -0.018036 0
-0.104494 -0.0272323 0
-0.10001 -0.035968 0
-0.0932165 -0.043619 0
-0.0841845 -0.0494879 0
-0.0731793 -0.0528764 0
-0.0606921 -0.0531902 0
-0.0474507 -0.0500805 0
-0.0343855 -0.0436061 0
-0.0225255 -0.0343784 0
-0.0128138 -0.0236128 0
-0.00587583 -0.0130068 0
-0.00183342 -0.00444724 0
-0.000257854 0.000295493 0
-0.00103087 0.00996091 0
-0.00445058 0.0244648 0
-0.0100814 0.0344287 0
-0.0170854 0.0409326 0
-0.0249234 0.0449453 0
-0.0332655 0.0472018 0
-0.0419144 0.0481894 0
-0.0507476 0.0481826 0
-0.0596771 0.0472962 0
-0.0686227 0.0455363 0
-0.0774938 0.0428448 0
-0.0861755 0.039133 0
-0.0945195 0.0343084 0
-0.102337 0.0282961 0
-0.109395 0.0210586 0
-0.115421 0.0126139 0
-0.120106 0.00305265 0
-0.123126 -0.00744714 0
-0.124151 -0.0186466 0
-0.122864 -0.0301588 0
-0.118988 -0.0414016 0
-0.112343 -0.0516241 0
-0.102906 -0.0599513 0
-0.0908665 -0.0654579 0
-0.0766789 -0.0672836 0
-0.0611061 -0.0648014 0
-0.0452177 -0.0578388 0
-0.0303068 -0.0469165 0
-0.0176844 -0.0334088 0
-0.00836052 -0.0194727 0
-0.00272615 -0.00765809 0
-0.000416505 -0.000378866 0
-0.0010854 0.0120772 0
-0.00468318 0.0293661 0
-0.010606 0.041081 0
-0.0179801 0.0486584 0
-0.0262513 0.0533287 0
-0.0350907 0.0559999 0
-0.0443128 0.0572623 0
-0.0538135 0.0574435 0
-0.0635261 0.0566773 0
-0.0733908 0.0549655 0
-0.0833325 0.0522283 0
-0.0932436 0.0483423 0
-0.102971 0.0431706 0
-0.112308 0.0365879 0
-0.120988 0.0285054 0
-0.12869 0.0188949 0
-0.135046 0.00781314 0
-0.139658 -0.00457672 0
-0.142129 -0.0180205 0
-0.142066 -0.0321343 0
-0.139097 -0.0462723 0
-0.132932 -0.0595631 0
-0.123429 -0.0709515 0
-0.110661 -0.0792659 0
-0.0949907 -0.083333 0
-0.0771538 -0.0821616 0
-0.0583032 -0.0752176 0
-0.0399772 -0.0627746 0
-0.023906 -0.0462442 0
-0.0116143 -0.0282528 0
-0.00392184 -0.0122047 0
-0.000634164 -0.00142954 0
-0.00112027 0.0142829 0
-0.00483689 0.0344748 0
-0.0109644 0.0480227 0
-0.0186112 0.0567376 0
-0.0272175 0.062127 0
-0.0364598 0.0652833 0
-0.0461663 0.0669076 0
-0.0562524 0.0673851 0
-0.0666735 0.0668695 0
-0.0773905 0.0653552 0
-0.0883445 0.0627343 0
-0.0994358 0.0588388 0
-0.110509 0.0534748 0
-0.121341 0.0464529 0
-0.13164 0.0376192 0
-0.141043 0.0268863 0
-0.149132 0.0142661 0
-0.155447 -0.000102189 0
-0.15953 -0.0159418 0
-0.160923 -0.0328826 0
-0.159173 -0.0502427 0
-0.153881 -0.0670499 0
-0.144766 -0.0820827 0
-0.131745 -0.0939244 0
-0.115029 -0.10106 0
-0.0952399 -0.10206 0
-0.0735255 -0.0958845 0
-0.0516038 -0.0823555 0
-0.0316328 -0.0627054 0
-0.0157763 -0.0399399 0
-0.00549096 -0.0184954 0
-0.000926887 -0.00299059 0
-0.00113303 0.0165362 0
-0.00490234 0.0397074 0
-0.011137 0.0551523 0
-0.0189453 0.065063 0
-0.0277694 0.071232 0
-0.0372928 0.074944 0
-0.0473569 0.0770175 0
-0.0578951 0.0778994 0
-0.0688828 0.077764 0
-0.0803007 0.0765957 0
-0.0921055 0.0742525 0
-0.104207 0.0705137 0
-0.116453 0.0651184 0
-0.128614 0.0578024 0
-0.14038 0.0483353 0
-0.151368 0.0365609 0
-0.161125 0.0224366 0
-0.169151 0.00606983 0
-0.17493 -0.0122532 0
-0.177957 -0.0321506 0
-0.177729 -0.0529531 0
-0.173739 -0.0736215 0
-0.165563 -0.092802 0
-0.15293 -0.108859 0
-0.135834 -0.119938 0
-0.114687 -0.124117 0
-0.0905108 -0.119718 0
-0.065085 -0.105869 0
-0.0409421 -0.0833055 0
-0.0209714 -0.0551671 0
-0.00751003 -0.0270149 0
-0.00131386 -0.00523134 0
-0.00112181 0.018791 0
-0.00487227 0.0449724 0
-0.0111077 0.0623574 0
-0.0189531 0.0735116 0
-0.0278578 0.0805122 0
-0.0375113 0.0848408 0
-0.0477648 0.0874383 0
-0.0585651 0.088817 0
-0.0699038 0.0891729 0
-0.0817783 0.0884791 0
-0.0941606 0.0865562 0
-0.106974 0.0831253 0
-0.120074 0.0778529 0
-0.13324 0.0703937 0
-0.146164 0.0604354 0
-0.158462 0.0477456 0
-0.169672 0.0322195 0
-0.179282 0.0139229 0
-0.186737 -0.00687231 0
-0.191508 -0.0297327 0
-0.193057 -0.054051 0
-0.190801 -0.0787687 0
-0.184177 -0.102455 0
-0.172705 -0.123311 0
-0.156106 -0.139182 0
-0.134485 -0.14764 0
-0.108591 -0.146265 0
-0.0801013 -0.133238 0
-0.0517907 -0.10839 0
-0.0272881 -0.0745557 0
-0.0100565 -0.0383193 0
-0.00181721 -0.00836241 0
-0.00108607 0.0209989 0
-0.00474411 0.050173 0
-0.0108691 0.0695172 0
-0.0186179 0.0819461 0
-0.0274492 0.0898137 0
-0.0370552 0.0947989 0
-0.0472906 0.097969 0
-0.0581092 0.0999051 0
-0.0695129 0.100827 0
-0.0815119 0.100698 0
-0.0940932 0.0993006 0
-0.107196 0.0962974 0
-0.120697 0.0912821 0
-0.134396 0.0838282 0
-0.14801 0.0735404 0
-0.161181 0.0601079 0
-0.173471 0.043358 0
-0.184382 0.0233046 0
-0.19337 0.000189594 0
-0.199888 -0.0255049 0
-0.203384 -0.0532341 0
-0.203242 -0.0819837 0
-0.198784 -0.110323 0
-0.189322 -0.136378 0
-0.174264 -0.157773 0
-0.153314 -0.17162 0
-0.126797 -0.174696 0
-0.0960804 -0.164013 0
-0.0639722 -0.138034 0
-0.034749 -0.0986378 0
-0.0131991 -0.0530186 0
-0.0024609 -0.0126405 0
-0.00102723 0.0231122 0
-0.00452272 0.0552132 0
-0.0104286 0.0765079 0
-0.0179447 0.0902202 0
-0.0265388 0.0989649 0
-0.0359003 0.104615 0
-0.0458796 0.108367 0
-0.0564297 0.110875 0
-0.0675561 0.112387 0
-0.0792775 0.112859 0
-0.0915951 0.112039 0
-0.10447 0.109537 0
-0.117806 0.10488 0
-0.131443 0.0975652 0
-0.145145 0.0871207 0
-0.158607 0.0731598 0
-0.171451 0.05544 0
-0.183234 0.0339159 0
-0.193453 0.00878614 0
-0.201569 -0.0194673 0
-0.207047 -0.0502982 0
-0.209291 -0.082818 0
-0.207549 -0.115687 0
-0.200948 -0.147076 0
-0.188564 -0.174516 0
-0.169629 -0.194762 0
-0.143895 -0.203805 0
-0.112195 -0.197322 0
-0.0770877 -0.171941 0
-0.0432828 -0.127759 0
-0.0169867 -0.0717434 0
-0.0032696 -0.018371 0
-0.00094939 0.0250888 0
-0.00422291 0.0600056 0
-0.00981317 0.0832117 0
-0.0169682 0.0981875 0
-0.0251621 0.107786 0
-0.0340743 0.114068 0
-0.0435432 0.118363 0
-0.0535127 0.1214 0
-0.0639856 0.123462 0
-0.0749852 0.124505 0
-0.0865267 0.124252 0
-0.0985958 0.122268 0
-0.111135 0.118024 0
-0.124034 0.110956 0
-0.137125 0.100524 0
-0.150182 0.0862755 0
-0.162917 0.0679026 0
-0.174978 0.045297 0
-0.185952 0.0185987 0
-0.195353 -0.0117635 0
-0.202699 -0.0451784 0
-0.207446 -0.0809462 0
-0.208832 -0.117914 0
-0.205846 -0.154437 0
-0.197255 -0.18813 0
-0.181777 -0.215561 0
-0.15847 -0.232045 0
-0.127399 -0.231854 0
-0.0905444 -0.20937 0
-0.0527059 -0.161973 0
-0.021439 -0.0950925 0
-0.00426866 -0.0259093 0
-0.00085981 0.026898 0
-0.0038717 0.0644818 0
-0.00907414 0.0895282 0
-0.0157605 0.105712 0
-0.0234047 0.116099 0
-0.0316693 0.122932 0
-0.0403733 0.127672 0
-0.0494459 0.131133 0
-0.0588825 0.133639 0
-0.0687085 0.135154 0
-0.0789529 0.135388 0
-0.0896291 0.133877 0
-0.100723 0.130049 0
-0.112187 0.123294 0
-0.123931 0.113022 0
-0.135827 0.0987299 0
-0.147699 0.0800544 0
-0.159322 0.0568299 0
-0.170414 0.0291315 0
-0.180622 -0.00268738 0
-0.189544 -0.037987 0
-0.196705 -0.0762293 0
-0.201411 -0.116539 0
-0.202598 -0.157612 0
-0.198779 -0.197364 0
-0.188167 -0.232417 0
-0.169044 -0.257618 0
-0.1405 -0.265896 0
-0.103582 -0.249101 0
-0.0627196 -0.200943 0
-0.0265443 -0.123565 0
-0.0054868 -0.0356648 0
-0.000769446 0.0285272 0
-0.00351039 0.0686054 0
-0.00829151 0.0953882 0
-0.0144364 0.112684 0
-0.0214086 0.123744 0
-0.0288473 0.13099 0
-0.0365488 0.136019 0
-0.0444249 0.139734 0
-0.0524626 0.142511 0
-0.0606892 0.144334 0
-0.0691486 0.144912 0
-0.0778845 0.143765 0
-0.0869304 0.140301 0
-0.0963033 0.133879 0
-0.106001 0.12388 0
-0.116 0.109767 0
-0.126252 0.091142 0
-0.136683 0.0677965 0
-0.147176 0.0397493 0
-0.15755 0.00727736 0
-0.167531 -0.0290493 0
-0.176767 -0.0687699 0
-0.184706 -0.111354 0
-0.190322 -0.155994 0
-0.19198 -0.201143 0
-0.187448 -0.243782 0
-0.174221 -0.278604 0
-0.150259 -0.297418 0
-0.11532 -0.289437 0
-0.0729232 -0.243866 0
-0.032264 -0.157476 0
-0.00696161 -0.0481132 0
-0.000693578 0.0299903 0
-0.00319688 0.0723866 0
-0.00757776 0.100769 0
-0.0131579 0.119028 0
-0.0193751 0.130589 0
-0.0258415 0.13805 0
-0.0323319 0.143151 0
-0.038745 0.146892 0
-0.0450625 0.149709 0
-0.0513178 0.151618 0
-0.0575727 0.152342 0
-0.0639036 0.151402 0
-0.0703928 0.148199 0
-0.0771243 0.142085 0
-0.0841812 0.132428 0
-0.0916457 0.118682 0
-0.0995988 0.100433 0
-0.108118 0.0774557 0
-0.117269 0.0497335 0
-0.127074 0.0174723 0
-0.137437 -0.0189 0
-0.148183 -0.0589373 0
-0.158952 -0.102478 0
-0.168871 -0.149334 0
-0.176291 -0.198725 0
-0.178684 -0.248337 0
-0.172827 -0.293133 0
-0.155483 -0.324196 0
-0.124819 -0.32826 0
-0.0828335 -0.289425 0
-0.0385426 -0.196867 0
-0.00874627 -0.063821 0
-0.000652989 0.0313368 0
-0.00300953 0.0758999 0
-0.00708343 0.10571 0
-0.0121385 0.124722 0
-0.0175656 0.136539 0
-0.0229504 0.143951 0
-0.0280564 0.148846 0
-0.0327802 0.152333 0
-0.03711 0.154915 0
-0.0410929 0.156651 0
-0.0448148 0.157287 0
-0.0483876 0.156361 0
-0.0519434 0.153285 0
-0.0556308 0.147418 0
-0.0596141 0.138136 0
-0.0640732 0.124898 0
-0.0692059 0.107302 0
-0.0752277 0.0851277 0
-0.0823686 0.0583532 0
-0.0908544 0.0271431 0
-0.100853 -0.00820906 0
-0.11239 -0.047345 0
-0.125296 -0.0903958 0
-0.138954 -0.137841 0
-0.151889 -0.189863 0
-0.161496 -0.245201 0
-0.164029 -0.299593 0
-0.155115 -0.343993 0
-0.131118 -0.363123 0
-0.091897 -0.335769 0
-0.0453097 -0.241401 0
-0.0109128 -0.0834801 0
-0.000676484 0.0326663 0
-0.00305444 0.0793049 0
-0.00700628 0.110331 0
-0.011649 0.129799 0
-0.0163004 0.141541 0
-0.0205284 0.148563 0
-0.024107 0.152919 0
-0.0269538 0.155831 0
-0.0290817 0.157875 0
-0.0305657 0.159158 0
-0.0315241 0.15946 0
-0.0321084 0.158345 0
-0.0325 0.155248 0
-0.0329093 0.149551 0
-0.0335742 0.14065 0
-0.0347626 0.128031 0
-0.036775 0.111315 0
-0.0399446 0.0903067 0
-0.0446376 0.065008 0
-0.0512487 0.0355852 0
-0.060168 0.00226641 0
-0.0716507 -0.0348001 0
-0.085748 -0.0759378 0
-0.102152 -0.122237 0
-0.119746 -0.174938 0
-0.13614 -0.234125 0
-0.147406 -0.29687 0
-0.148272 -0.354765 0
-0.133245 -0.391375 0
-0.099472 -0.380512 0
-0.0524613 -0.290256 0
-0.0135453 -0.107938 0
-0.00080614 0.0341489 0
-0.00347959 0.0828737 0
-0.00760722 0.114842 0
-0.0120267 0.13435 0
-0.0159555 0.145569 0
-0.0189693 0.151776 0
-0.0208913 0.155206 0
-0.0216966 0.157196 0
-0.02145 0.158391 0
-0.0202732 0.158948 0
-0.0183275 0.158682 0
-0.0158073 0.157187 0
-0.0129419 0.153932 0
-0.00999963 0.148334 0
-0.0072852 0.139818 0
-0.00514441 0.127911 0
-0.00396883 0.112272 0
-0.00418915 0.0927398 0
-0.00627139 0.0693501 0
-0.0107134 0.0422962 0
-0.0180335 0.0117949 0
-0.0286822 -0.0221973 0
-0.0429209 -0.0602046 0
-0.060746 -0.103741 0
-0.0815434 -0.155043 0
-0.103488 -0.21568 0
-0.122949 -0.284587 0
-0.134223 -0.354908 0
-0.130161 -0.410321 0
-0.104755 -0.420745 0
-0.059798 -0.341991 0
-0.0167171 -0.138201 0
-0.00110778 0.0360629 0
-0.00450048 0.0870259 0
-0.00923529 0.119552 0
-0.0136843 0.138509 0
-0.0169516 0.148607 0
-0.0186758 0.153476 0
-0.0187938 0.155546 0
-0.0173887 0.156256 0
-0.0146127 0.156308 0
-0.0106546 0.155896 0
-0.00572955 0.154864 0
-7.59159e-05 0.152832 0
0.00603273 0.149313 0
0.0122743 0.143769 0
0.0182734 0.135669 0
0.0236052 0.124587 0
0.0278019 0.110223 0
0.0303598 0.0924506 0
0.0307549 0.0713264 0
0.028463 0.0470537 0
0.0229769 0.0198436 0
0.0137884 -0.0104088 0
0.000462329 -0.0444284 0
-0.0172876 -0.0839419 0
-0.0393808 -0.131951 0
-0.0648532 -0.191355 0
-0.0909607 -0.263344 0
-0.112301 -0.343537 0
-0.120629 -0.417427 0
-0.106625 -0.45305 0
-0.0668987 -0.394369 0
-0.0204421 -0.17536 0
-0.00169085 0.0388615 0
-0.00644301 0.0923721 0
-0.0123585 0.124856 0
-0.017106 0.142401 0
-0.0197126 0.150589 0
-0.0199894 0.153495 0
-0.0180843 0.15374 0
-0.0142538 0.152827 0
-0.00877438 0.151482 0
-0.00191889 0.149909 0
0.00604407 0.147963 0
0.0148276 0.145296 0
0.0241064 0.141462 0
0.0335099 0.135975 0
0.0426103 0.128364 0
0.0509247 0.118246 0
0.0579268 0.105365 0
0.0630623 0.0896156 0
0.0657731 0.0710556 0
0.0655283 0.0498612 0
0.0618504 0.0262002 0
0.0543105 -3.68091e-05 0
0.0425177 -0.0296815 0
0.0261463 -0.0645676 0
0.00482554 -0.107911 0
-0.0216053 -0.163492 0
-0.0518472 -0.234858 0
-0.0817442 -0.320785 0
-0.103012 -0.410583 0
-0.103383 -0.473528 0
-0.0728969 -0.444103 0
-0.0245886 -0.220391 0
-0.00274375 0.0432961 0
-0.00980445 0.0997504 0
-0.0175767 0.131166 0
-0.0227818 0.146044 0
-0.0245311 0.151302 0
-0.0230064 0.151534 0
-0.0187016 0.149491 0
-0.0121199 0.146664 0
-0.00369252 0.143739 0
0.00621876 0.140886 0
0.0172863 0.137956 0
0.0291784 0.134627 0
0.0415373 0.130493 0
0.05396 0.125118 0
0.0659868 0.118093 0
0.0771046 0.109085 0
0.0867599 0.0978691 0
0.094381 0.0843547 0
0.0994087 0.068578 0
0.101333 0.0506593 0
0.0997237 0.0306892 0
0.0942305 0.00850727 0
0.0845064 -0.0167087 0
0.0701551 -0.0468177 0
0.0506847 -0.0848702 0
0.025534 -0.134951 0
-0.00572108 -0.201901 0
-0.0414812 -0.288085 0
-0.0750102 -0.388486 0
-0.0923673 -0.477896 0
-0.0761128 -0.486475 0
-0.0287301 -0.273709 0
-0.0045884 0.0506282 0
-0.0153043 0.110195 0
-0.0255178 0.138707 0
-0.0309291 0.149119 0
-0.0311557 0.150203 0
-0.027074 0.147027 0
-0.0196889 0.142309 0
-0.00981175 0.137387 0
0.00196164 0.132814 0
0.0151856 0.128675 0
0.0294915 0.124793 0
0.044531 0.120858 0
0.0599375 0.116497 0
0.0753028 0.111326 0
0.0901667 0.104994 0
0.10402 0.0972126 0
0.11632 0.0877858 0
0.126516 0.0766217 0
0.134078 0.0637211 0
0.138537 0.0491328 0
0.139507 0.0328548 0
0.136683 0.0146587 0
0.129762 -0.00621507 0
0.118293 -0.0314906 0
0.101602 -0.064036 0
0.0787396 -0.107772 0
0.048491 -0.167577 0
0.010139 -0.248297 0
-0.0334107 -0.351195 0
-0.0694496 -0.461791 0
-0.0734578 -0.514827 0
-0.0318795 -0.334319 0
-0.00773069 0.0629473 0
-0.0237697 0.124631 0
-0.0362801 0.146995 0
-0.0405446 0.150507 0
-0.0375808 0.146078 0
-0.0294103 0.138899 0
-0.0176944 0.131335 0
-0.00356406 0.124353 0
0.0122557 0.118255 0
0.0292811 0.112985 0
0.0471487 0.10831 0
0.0655346 0.103916 0
0.0841029 0.0994636 0
0.10248 0.0946173 0
0.120244 0.0890755 0
0.13693 0.0825917 0
0.152046 0.0749909 0
0.165094 0.0661733 0
0.175601 0.0561001 0
0.183145 0.0447508 0
0.18737 0.032041 0
0.187978 0.017688 0
0.184659 0.00099587 0
0.176909 -0.0194821 0
0.163869 -0.046314 0
0.144178 -0.0829405 0
0.115864 -0.133846 0
0.0767205 -0.204532 0
0.0261103 -0.3008 0
-0.0284537 -0.421583 0
-0.0594624 -0.520018 0
-0.0319849 -0.398183 0
-0.0127231 0.0834012 0
-0.0351735 0.142666 0
-0.0472594 0.153556 0
-0.0464089 0.14736 0
-0.0365811 0.136433 0
-0.0213734 0.125166 0
-0.00308028 0.115059 0
0.0169758 0.106443 0
0.0380687 0.0992527 0
0.0597838 0.0932465 0
0.0818457 0.0881183 0
0.104018 0.0835494 0
0.126051 0.0792294 0
0.147655 0.0748705 0
0.168495 0.0702184 0
0.188193 0.0650643 0
0.206344 0.0592518 0
0.222533 0.0526758 0
0.236356 0.045267 0
0.24744 0.0369564 0
0.255439 0.0276103 0
0.260021 0.0169288 0