# vtk DataFile Version 2.0
Lid-driven cavity
ASCII
DATASET STRUCTURED_POINTS
DIMENSIONS 32 32 1
ORIGIN 0.015625 0.015625 0
SPACING 0.03125 0.03125 1
POINT_DATA 1024
SCALARS pressure double 1
LOOKUP_TABLE default
48.8024
48.5937
48.2201
47.7988
47.4016
47.0651
46.8078
46.643
46.5856
46.6542
46.8694
47.2509
47.8132
48.5609
49.4845
50.5572
51.733
52.9489
54.1221
55.1589
55.9663
56.4658
56.6083
56.3849
55.8325
55.031
54.0908
53.1381
52.2987
51.6807
51.3614
51.3495
49.011
48.7931
48.4803
48.1409
47.8196
47.5426
47.3259
47.183
47.129
47.1819
47.3611
47.6852
48.1681
48.8155
49.6203
50.5601
51.5943
52.6685
53.7077
54.6267
55.3409
55.7795
55.8994
55.6951
55.2037
54.5002
53.686
52.8692
52.1539
51.6246
51.3415
51.3374
49.3988
49.087
48.7627
48.4523
48.1716
47.9291
47.7318
47.5892
47.5149
47.527
47.6461
47.893
48.285
48.8323
49.5335
50.3723
51.3143
52.3093
53.2851
54.1578
54.8421
55.2657
55.3832
55.1878
54.7159
54.0425
53.2675
52.4968
51.8224
51.3186
51.0381
51.0224
49.8338
49.3874
49.0107
48.693
48.4212
48.1845
47.9784
47.8066
47.6811
47.6208
47.6497
47.7933
48.0757
48.5147
49.1173
49.875
50.7602
51.7235
52.6933
53.5822
54.2985
54.761
54.9149
54.7457
54.2855
53.6096
52.821
52.0292
51.3296
50.7918
50.4662
50.3924
50.1915
49.5953
49.146
48.7964
48.5054
48.2431
47.9939
47.756
47.5403
47.368
47.268
47.2734
47.4173
47.7279
48.2229
48.904
49.7521
50.7181
51.7308
52.6975
53.5157
54.0887
54.3445
54.2521
53.8322
53.1557
52.3295
51.4728
50.6917
50.0642
49.6434
49.4684
50.351
49.6039
49.0737
48.6749
48.3384
48.0172
47.6857
47.3379
46.9847
46.6512
46.373
46.1924
46.1543
46.2996
46.6593
47.2481
48.0588
49.0467
50.1436
51.2517
52.2548
53.0347
53.4922
53.5683
53.2597
52.6238
51.7673
50.822
49.9148
49.1446
48.5785
48.2641
50.1921
49.3009
48.6875
48.2255
47.8182
47.4025
46.9447
46.4362
45.8893
45.334
44.814
44.383
44.0993
44.0194
44.191
44.6453
45.3912
46.3993
47.6098
48.9228
50.2075
51.3184
52.1182
52.5041
52.4311
51.9265
51.0865
50.0553
48.9898
48.0263
47.2637
46.7721
49.5954
48.5722
47.8759
47.3373
46.8326
46.2839
45.6509
44.9235
44.1163
43.2648
42.4222
41.6546
41.0362
40.6423
40.5412
40.7857
41.4055
42.4007
43.733
45.3063
46.9771
48.5685
49.8941
50.7887
51.1414
50.9242
50.2032
49.1271
47.8914
46.6898
45.6781
44.9637
48.446
47.3071
46.5289
45.8992
45.2682
44.5445
43.6818
42.669
41.5233
40.2859
39.0197
37.8045
36.7327
35.9019
35.406
35.3258
35.7181
36.6252
38.0534
39.9207
42.0769
44.3137
46.3864
48.0479
49.0925
49.4018
48.9788
47.9575
46.5728
45.0991
43.7805
42.7897
46.6411
45.4061
44.5466
43.8093
43.0201
42.0752
40.9227
39.5501
37.9761
36.2475
34.4362
32.637
30.9624
29.5363
28.4845
27.923
27.9437
28.6353
30.0852
32.2404
34.9562
37.9985
41.0608
43.7981
45.8787
47.0499
47.2039
46.4207
44.9626
43.2046
41.5208
40.1877
44.0976
42.789
41.8482
40.9848
40.0031
38.7876
37.2808
35.4674
33.3664
31.0283
28.5339
25.9926
23.5392
21.328
19.5231
18.2848
17.7526
18.0456
19.3822
21.7613
25.0607
29.0345
33.3205
37.4676
40.9915
43.4579
44.5841
44.3341
42.9595
40.9441
38.8415
37.0874
40.7609
39.4039
38.3815
37.3727
36.163
34.6267
32.6998
30.3627
27.6325
24.5614
21.2373
17.784
14.3599
11.1533
8.37203
6.22917
4.92223
4.60947
5.62919
8.09489
11.9272
16.8898
22.5823
28.455
33.857
38.1289
40.7407
41.4512
40.4286
38.246
35.6857
33.4203
36.6127
35.2342
34.1307
32.9581
31.4875
29.5837
27.1756
24.2372
20.7815
16.8597
12.5646
8.0335
3.44876
-0.965532
-4.95294
-8.24117
-10.5665
-11.7059
-11.2611
-8.91955
-4.69679
1.20919
8.39179
16.2286
23.9103
30.5269
35.2309
37.466
37.2012
35.0341
32.0076
29.1325
31.6753
30.3035
29.1217
27.7715
26.0139
23.7057
20.7677
17.1661
12.9068
8.03753
2.65357
-3.09631
-9.00667
-14.8169
-20.2198
-24.8793
-28.4574
-30.6529
-31.0564
-29.108
-24.7309
-18.0517
-9.43992
0.457036
10.709
20.1617
27.5999
32.0368
33.0842
31.2364
27.7871
24.2009
26.0136
24.6769
23.4239
21.8909
19.8329
17.1005
13.6062
9.30656
4.19809
-1.67768
-8.22556
-15.2877
-22.6377
-29.9798
-36.9567
-43.1669
-48.1943
-51.6472
-53.1428
-51.8864
-47.6679
-40.5125
-30.7042
-18.8497
-5.92975
6.70612
17.4667
24.8366
27.8852
26.8028
23.05
18.6558
19.7315
18.4579
17.1469
15.4385
13.0863
9.93567
5.89056
0.896624
-5.06078
-11.9487
-19.6748
-28.0748
-36.9041
-45.8351
-54.4636
-62.3269
-68.9335
-73.8053
-76.5282
-76.253
-72.5455
-65.3116
-54.7071
-41.2245
-25.7967
-9.87132
4.63641
15.632
21.4587
21.7336
17.8967
12.6108
12.9645
11.7795
10.432
8.57317
5.95852
2.42892
-2.12058
-7.7565
-14.5063
-22.3477
-31.193
-40.8745
-51.1327
-61.6122
-71.8677
-81.382
-89.5972
-95.9589
-99.9727
-100.879
-98.0118
-91.1408
-80.2652
-65.6938
-48.1998
-29.1885
-10.778
4.38533
13.7752
16.1244
12.5422
6.30331
5.86736
4.79244
3.43921
1.47646
-1.33721
-5.1662
-10.1261
-16.2972
-23.7215
-32.3887
-42.218
-53.0399
-64.5834
-76.4697
-88.2189
-99.2682
-109.005
-116.811
-122.116
-124.272
-122.484
-116.386
-105.809
-90.8295
-71.955
-50.3847
-28.2538
-8.6375
5.01068
10.2304
7.37009
0.150498
-1.40086
-2.35062
-3.66845
-5.66357
-8.57591
-12.5794
-17.8043
-24.3478
-32.2685
-41.5697
-52.1782
-63.9248
-76.5287
-89.5923
-102.607
-114.974
-126.04
-135.14
-141.649
-144.992
-144.382
-139.361
-129.595
-114.914
-95.4855
-72.1428
-46.8111
-22.7752
-4.35368
4.5523
3.00978
-5.17075
-8.69385
-9.51275
-10.7432
-12.6702
-15.5391
-19.5433
-24.8359
-31.5368
-39.724
-49.4157
-60.5468
-72.9485
-86.3321
-100.284
-114.273
-127.672
-139.8
-149.962
-157.509
-161.868
-162.391
-158.583
-149.984
-136.201
-117.028
-92.8156
-65.0467
-36.9248
-13.4369
-0.0566366
0.445441
-8.60312
-15.8956
-16.5906
-17.6695
-19.3942
-22.0308
-25.8104
-30.9242
-37.5233
-45.7097
-55.5169
-66.8869
-79.6498
-93.5098
-108.039
-122.688
-136.81
-149.701
-160.654
-169.009
-174.19
-175.679
-173.027
-165.729
-153.205
-134.908
-110.643
-81.2608
-49.5619
-20.8885
-2.26589
1.16938
-8.52768
-22.9387
-23.533
-24.3804
-25.727
-27.8885
-31.1654
-35.8097
-42.0167
-49.9169
-59.558
-70.885
-83.7236
-97.7696
-112.583
-127.599
-142.155
-155.534
-167.019
-175.948
-181.755
-183.985
-182.278
-176.166
-164.954
-147.811
-124.014
-93.657
-58.8378
-24.8643
-0.138013
7.38704
-2.50129
-29.8249
-30.3607
-30.8714
-31.6082
-32.9876
-35.4296
-39.2785
-44.7881
-52.1222
-61.3371
-72.3793
-85.0668
-99.0779
-113.954
-129.114
-143.88
-157.525
-169.327
-178.626
-184.865
-187.601
-186.536
-181.274
-171.102
-154.973
-131.694
-100.564
-62.7362
-23.0617
8.98417
22.2681
13.1001
-36.6552
-37.1941
-37.2146
-37.0273
-37.2381
-38.46
-41.1676
-45.6977
-52.2375
-60.8445
-71.4482
-83.8431
-97.6837
-112.488
-127.655
-142.491
-156.261
-168.238
-177.76
-184.272
-187.336
-186.599
-181.644
-171.881
-156.2
-132.927
-100.604
-59.2431
-12.8152
28.5411
50.2168
43.5291
-43.6875
-44.299
-43.5773
-42.021
-40.5736
-40.142
-41.3723
-44.6684
-50.2355
-58.1127
-68.1947
-80.2369
-93.8574
-108.544
-123.67
-138.53
-152.375
-164.472
-174.151
-180.844
-184.097
-183.506
-178.493
-168.314
-151.809
-127.376
-92.7302
-46.4626
8.77325
62.7334
97.1083
96.1877
-51.4632
-52.1771
-50.2538
-46.668
-42.9331
-40.3598
-39.7924
-41.6625
-46.1619
-53.2791
-62.8475
-74.5644
-87.9989
-102.601
-117.718
-132.625
-146.564
-158.789
-168.612
-175.435
-178.753
-178.125
-172.758
-161.615
-143.251
-115.583
-76.1346
-22.6146
44.7164
116.376
170.411
181.196
-61.1088
-61.7549
-57.7262
-51.0853
-44.2517
-39.0159
-36.384
-36.7342
-40.1784
-46.6066
-55.7592
-67.2557
-80.6052
-95.2144
-110.403
-125.426
-139.514
-151.903
-161.877
-168.791
-172.063
-171.144
-165.156
-152.491
-131.238
-98.6511
-51.294
14.0617
98.0758
194.575
279.066
311.999
-75.0753
-74.7647
-66.7447
-55.3947
-44.4233
-36.0206
-31.1619
-30.0297
-32.5518
-38.4596
-47.3678
-58.8022
-72.2052
-86.9386
-102.293
-117.508
-131.797
-144.379
-154.503
-161.456
-164.552
-163.075
-156.128
-141.342
-116.126
-76.8515
-18.7908
63.0425
171.556
302.111
432.842
506.027
-98.9924
-94.366
-78.2468
-59.4846
-43.1112
-31.1593
-24.0972
-21.6909
-23.5551
-29.1993
-38.0877
-49.645
-63.2475
-78.2153
-93.8147
-109.27
-123.784
-136.554
-146.79
-153.706
-156.488
-154.221
-145.77
-128.263
-98.0347
-50.3891
21.0005
123.527
263.801
442.547
640.488
785.328
-146.295
-125.197
-92.0757
-61.8798
-39.0125
-23.5312
-14.6482
-11.4715
-13.1481
-18.9176
-28.0875
-39.9908
-53.95
-69.2559
-85.1605
-100.882
-115.615
-128.541
-138.832
-145.621
-147.954
-144.683
-134.298
-113.444
-77.4278
-20.3984
65.7643
191.541
369.346
610.878
911.206
1176.08
-247.901
-166.644
-100.71
-55.7496
-26.9522
-9.62293
-0.642775
1.95383
-0.525943
-7.12865
-17.0786
-29.6743
-44.2271
-60.0296
-76.3419
-92.3917
-107.379
-120.479
-130.828
-137.491
-139.377
-135.093
-122.712
-98.3465
-56.8419
8.66573
107.91
254.692
469.437
785.057
1250.03
1809.44
-500.218
-179.486
-66.2339
-18.8128
4.60026
16.4728
21.1246
20.4302
15.4399
6.89496
-4.57912
-18.3855
-33.911
-50.505
-67.4715
-84.0718
-99.5285
-113.025
-123.687
-130.54
-132.409
-127.74
-114.238
-88.0331
-43.8677
25.5584
130.731
287.474
522.794
894.212
1557.24
2918.64
VECTORS velocity double
8.33341e-05 -8.33342e-05 0
0.000170265 -3.59694e-06 0
3.64861e-05 0.000137376 0
-0.000367453 0.000266563 0
-0.000999993 0.000365976 0
-0.00180468 0.000438714 0
-0.00273571 0.000492313 0
-0.00376004 0.000532019 0
-0.00485119 0.000559133 0
-0.00598192 0.000571591 0
-0.00711877 0.000565261 0
-0.00821929 0.000535261 0
-0.00923164 0.000477088 0
-0.0100963 0.000387565 0
-0.0107495 0.000265678 0
-0.0111285 0.000113299 0
-0.0111775 -6.43402e-05 0
-0.0108545 -0.00025865 0
-0.0101403 -0.000455533 0
-0.00904764 -0.000637123 0
-0.00762687 -0.000783647 0
-0.00596717 -0.000876054 0
-0.00419184 -0.000899275 0
-0.00244696 -0.000845611 0
-0.000883892 -0.000717453 0
0.000362031 -0.000528471 0
0.00119339 -0.000302886 0
0.00156754 -7.12697e-05 0
0.00150765 0.000131167 0
0.00111101 0.000265464 0
0.000561018 0.000284531 0
0.000138244 0.000138243 0
5.55253e-08 -0.000166724 0
-0.000248264 0.000241181 0
-0.00105569 0.000833808 0
-0.00245854 0.00137691 0
-0.00437582 0.00180545 0
-0.00669729 0.0021254 0
-0.00932064 0.00235999 0
-0.0121576 0.00252558 0
-0.0151258 0.00262496 0
-0.0181383 0.00264904 0
-0.0210954 0.00258172 0
-0.0238811 0.002405 0
-0.0263649 0.00210349 0
-0.0284072 0.00166813 0
-0.029868 0.00109922 0
-0.0306182 0.000408898 0
-0.0305518 -0.000377364 0
-0.0296008 -0.00121966 0
-0.0277492 -0.00206034 0
-0.0250453 -0.00282883 0
-0.0216097 -0.00344829 0
-0.0176358 -0.00384502 0
-0.0133815 -0.00395993 0
-0.00915037 -0.00376101 0
-0.00526146 -0.00325402 0
-0.00201059 -0.00248869 0
0.000373182 -0.0015578 0
0.00177033 -0.00058766 0
0.00220221 0.000275579 0
0.00184706 0.000872832 0
0.00104358 0.00103064 0
0.000291005 0.000567492 0
-0.000181205 1.44258e-05 0
-0.00100617 0.00113332 0
-0.0027461 0.00248903 0
-0.00532639 0.00370482 0
-0.00860311 0.00467155 0
-0.0124213 0.005399 0
-0.0166379 0.00592634 0
-0.0211213 0.00627947 0
-0.0257408 0.00645884 0
-0.0303564 0.00644331 0
-0.0348118 0.00619995 0
-0.0389341 0.00569469 0
-0.0425379 0.0049014 0
-0.0454346 0.00380925 0
-0.0474439 0.00242829 0
-0.0484075 0.000793566 0
-0.0482035 -0.00103239 0
-0.0467618 -0.00295741 0
-0.0440768 -0.00485917 0
-0.0402193 -0.00659136 0
-0.0353447 -0.00799592 0
-0.0296957 -0.00892033 0
-0.0235954 -0.00923919 0
-0.0174299 -0.00887848 0
-0.0116166 -0.00783873 0
-0.00655984 -0.0062116 0
-0.00259494 -0.00418357 0
6.97279e-05 -0.00202371 0
0.00140473 -5.52504e-05 0
0.00159155 0.00137199 0
0.00102433 0.00190217 0
0.000307187 0.00116568 0
-0.000400736 0.000596367 0
-0.0019151 0.00289071 0
-0.00473262 0.00528908 0
-0.00860532 0.00735775 0
-0.0132966 0.00898665 0
-0.0186007 0.0102062 0
-0.0243388 0.0110739 0
-0.0303453 0.0116217 0
-0.0364521 0.0118429 0
-0.0424782 0.011701 0
-0.048226 0.0111455 0
-0.0534836 0.0101289 0
-0.0580322 0.00861955 0
-0.0616568 0.0066124 0
-0.0641587 0.00413633 0
-0.0653686 0.001259 0
-0.06516 -0.00191037 0
-0.0634604 -0.00522076 0
-0.0602613 -0.00847985 0
-0.0556308 -0.0114587 0
-0.0497254 -0.0139086 0
-0.0427969 -0.0155851 0
-0.0351922 -0.0162794 0
-0.0273412 -0.0158549 0
-0.0197298 -0.0142869 0
-0.012855 -0.011695 0
-0.00716084 -0.0083593 0
-0.00296419 -0.00470931 0
-0.000384833 -0.00128402 0
0.000704789 0.00132433 0
0.000698661 0.00252318 0
0.000243804 0.00171667 0
-0.000635089 0.00163219 0
-0.00288559 0.00561975 0
-0.00684271 0.00933468 0
-0.0120534 0.0123955 0
-0.01817 0.0147568 0
-0.02493 0.0165001 0
-0.0321223 0.0177104 0
-0.039555 0.0184246 0
-0.0470342 0.0186261 0
-0.0543521 0.0182618 0
-0.0612856 0.0172659 0
-0.0676006 0.0155811 0
-0.073061 0.0131764 0
-0.0774395 0.0100586 0
-0.0805282 0.00628074 0
-0.0821504 0.00194673 0
-0.0821705 -0.00278655 0
-0.0805008 -0.00771397 0
-0.0771087 -0.0125778 0
-0.0720333 -0.0170667 0
-0.0654028 -0.0208366 0
-0.0574488 -0.0235396 0
-0.0485146 -0.0248639 0
-0.0390521 -0.0245839 0
-0.0296036 -0.0226177 0
-0.0207595 -0.019083 0
-0.01309 -0.014335 0
-0.00705372 -0.0089665 0
-0.00290157 -0.00375834 0
-0.000601573 0.000409021 0
0.000195848 0.00264719 0
0.000141445 0.00210192 0
-0.000872218 0.0031395 0
-0.00386445 0.00935517 0
-0.0089608 0.0146527 0
-0.0154933 0.0188205 0
-0.0229983 0.0219534 0
-0.0311568 0.024222 0
-0.0397291 0.0257531 0
-0.048506 0.0265915 0
-0.0572786 0.0267108 0
-0.0658256 0.026042 0
-0.0739125 0.024506 0
-0.081296 0.0220396 0
-0.0877331 0.0186154 0
-0.0929893 0.0142542 0
-0.0968482 0.00903277 0
-0.0991197 0.00308834 0
-0.0996471 -0.00338054 0
-0.0983118 -0.0101251 0
-0.0950383 -0.0168322 0
-0.0898144 -0.0231116 0
-0.0827168 -0.0285199 0
-0.0739335 -0.0325936 0
-0.0637815 -0.0348961 0
-0.0527165 -0.0350791 0
-0.0413261 -0.0329613 0
-0.0302973 -0.0286124 0
-0.0203472 -0.0224252 0
-0.012117 -0.0151428 0
-0.00604126 -0.00780991 0
-0.00223304 -0.00164762 0
-0.000424198 0.00209757 0
1.91888e-05 0.00226256 0
-0.00110232 0.00511404 0
-0.00480886 0.0140794 0
-0.0109933 0.0212093 0
-0.0187787 0.0265819 0
-0.0275914 0.0305098 0
-0.037061 0.0332937 0
-0.0469261 0.0351189 0
-0.0569678 0.0360443 0
-0.0669727 0.0360355 0
-0.0767174 0.0350092 0
-0.0859665 0.0328747 0
-0.094476 0.029564 0
-0.102 0.0250525 0
-0.108299 0.0193715 0
-0.11314 0.0126163 0
-0.116313 0.00494896 0
-0.117627 -0.00340009 0
-0.11692 -0.0121481 0
-0.114061 -0.0209409 0
-0.108973 -0.0293145 0
-0.101664 -0.0367242 0
-0.092256 -0.0425805 0
-0.0810181 -0.0462991 0
-0.0683859 -0.0473732 0
-0.0549733 -0.0454702 0
-0.0415562 -0.0405495 0
-0.029013 -0.0329814 0
-0.0182077 -0.0236222 0
-0.00982252 -0.0137913 0
-0.0041835 -0.00511343 0
-0.00115097 0.000722007 0
-0.000118994 0.00216275 0
-0.00131516 0.00753152 0
-0.00567742 0.0197307 0
-0.0128538 0.0289188 0
-0.0217772 0.0355811 0
-0.0317766 0.0403227 0
-0.0424391 0.043613 0
-0.0534886 0.0457142 0
-0.0647044 0.0467065 0
-0.075877 0.0465507 0
-0.0867892 0.0451509 0
-0.0972118 0.0424046 0
-0.106905 0.0382367 0
-0.115621 0.0326208 0
-0.123112 0.0255917 0
-0.129127 0.017253 0
-0.133423 0.00778133 0
-0.13577 -0.0025725 0
-0.135956 -0.0134966 0
-0.133793 -0.0246135 0
-0.12913 -0.0353934 0
-0.121892 -0.0451929 0
-0.112121 -0.0532906 0
-0.10001 -0.0589377 0
-0.0859434 -0.0614332 0
-0.0705288 -0.0602374 0
-0.0546059 -0.0551222 0
-0.0392102 -0.0463476 0
-0.0254592 -0.0348123 0
-0.0143515 -0.0220941 0
-0.006515 -0.0102862 0
-0.00200793 -0.00164481 0
-0.000277052 0.00176671 0
-0.00149977 0.0103464 0
-0.00642835 0.0262066 0
-0.0144593 0.0376502 0
-0.0243638 0.0456776 0
-0.0353906 0.0512524 0
-0.0470941 0.0550491 0
-0.05919 0.0574235 0
-0.0714621 0.0584851 0
-0.0837107 0.0581933 0
-0.0957304 0.0564403 0
-0.107303 0.05311 0
-0.118194 0.0481156 0
-0.128157 0.0414214 0
-0.136931 0.0330556 0
-0.144246 0.0231194 0
-0.149827 0.011792 0
-0.153398 -0.000665122 0
-0.154703 -0.0139131 0
-0.153496 -0.0275671 0
-0.149553 -0.0410457 0
-0.142715 -0.0536164 0
-0.132924 -0.0644296 0
-0.12027 -0.0725633 0
-0.105048 -0.077096 0
-0.0878119 -0.0772257 0
-0.0694184 -0.0724502 0
-0.0510297 -0.062804 0
-0.0340243 -0.0491122 0
-0.0197792 -0.033147 0
-0.00933114 -0.0175178 0
-0.00304311 -0.00520828 0
-0.000466729 0.00102292 0
-0.00164507 0.0134913 0
-0.00702081 0.0333661 0
-0.0157304 0.0472313 0
-0.0264206 0.0566912 0
-0.0382783 0.0631234 0
-0.0508338 0.0674371 0
-0.0637999 0.0700976 0
-0.0769683 0.0712515 0
-0.0901531 0.0708602 0
-0.103164 0.068804 0
-0.115796 0.0649502 0
-0.127823 0.0591943 0
-0.139 0.0514826 0
-0.149059 0.0418269 0
-0.15771 0.0303145 0
-0.16465 0.0171173 0
-0.169568 0.00249934 0
-0.172161 -0.0131793 0
-0.172139 -0.0295306 0
-0.169217 -0.0459461 0
-0.163148 -0.061623 0
-0.153764 -0.075599 0
-0.141026 -0.086785 0
-0.125097 -0.0940255 0
-0.106417 -0.0962124 0
-0.085794 -0.0924802 0
-0.0644548 -0.0825019 0
-0.0440117 -0.0668628 0
-0.0262583 -0.0473951 0
-0.0127557 -0.0272205 0
-0.00431868 -0.0102307 0
-0.000702969 -0.000146773 0
-0.00174082 0.0168772 0
-0.00741763 0.0410328 0
-0.0165958 0.0574524 0
-0.0278411 0.0684055 0
-0.0402973 0.075723 0
-0.0534771 0.0805728 0
-0.0670926 0.0835435 0
-0.080945 0.0848264 0
-0.0948633 0.0843883 0
-0.108674 0.0820976 0
-0.122188 0.0778019 0
-0.135191 0.0713733 0
-0.147443 0.0627326 0
-0.158674 0.0518661 0
-0.168586 0.0388387 0
-0.176859 0.0238059 0
-0.183156 0.00702628 0
-0.187139 -0.01113 0
-0.188484 -0.0302575 0
-0.186866 -0.0497584 0
-0.181958 -0.0687887 0
-0.173474 -0.0863016 0
-0.161229 -0.101065 0
-0.145208 -0.111696 0
-0.125676 -0.116754 0
-0.103305 -0.114933 0
-0.0792966 -0.105397 0
-0.0554253 -0.0882817 0
-0.033899 -0.0652559 0
-0.0169069 -0.0398543 0
-0.0059011 -0.0170396 0
-0.00100247 -0.00185221 0
-0.0017787 0.0203967 0
-0.00758874 0.0490001 0
-0.0169975 0.068072 0
-0.0285377 0.0805714 0
-0.0413276 0.0888033 0
-0.0548665 0.0942112 0
-0.0688651 0.0975192 0
-0.083133 0.098971 0
-0.097514 0.098543 0
-0.111852 0.096092 0
-0.125975 0.0914444 0
-0.139686 0.0844446 0
-0.152756 0.0749833 0
-0.164926 0.0630156 0
-0.175902 0.0485774 0
-0.185363 0.0318013 0
-0.192966 0.0129313 0
-0.198353 -0.00766492 0
-0.201186 -0.0295445 0
-0.201115 -0.0521601 0
-0.197748 -0.0746633 0
-0.190692 -0.0959662 0
-0.179601 -0.114737 0
-0.164249 -0.129397 0
-0.144659 -0.138175 0
-0.121273 -0.139268 0
-0.0951503 -0.131194 0
-0.0681143 -0.113393 0
-0.0427278 -0.0870578 0
-0.0218749 -0.0558973 0
-0.00785298 -0.0260244 0
-0.00138219 -0.00423687 0
-0.00175345 0.0239288 0
-0.00751475 0.0570393 0
-0.0168972 0.0788241 0
-0.0284506 0.0929128 0
-0.0412839 0.102085 0
-0.0548846 0.108069 0
-0.0689595 0.111735 0
-0.0833233 0.113387 0
-0.0978325 0.113017 0
-0.112349 0.110472 0
-0.12672 0.105558 0
-0.14077 0.0980911 0
-0.154292 0.0879295 0
-0.167049 0.0749956 0
-0.178769 0.0592937 0
-0.189151 0.040929 0
-0.197869 0.0201246 0
-0.204576 -0.00276433 0
-0.20893 -0.0272579 0
-0.210572 -0.0528759 0
-0.209077 -0.0788101 0
-0.203963 -0.103989 0
-0.194723 -0.127045 0
-0.180898 -0.146265 0
-0.162212 -0.159582 0
-0.138781 -0.164677 0
-0.111386 -0.159304 0
-0.0817461 -0.141958 0
-0.0526577 -0.112967 0
-0.0277025 -0.0757966 0
-0.010227 -0.0376225 0
-0.0018587 -0.00747775 0
-0.00166388 0.0273462 0
-0.00719036 0.0649097 0
-0.0162822 0.089428 0
-0.0275562 0.105136 0
-0.0401274 0.115266 0
-0.0534716 0.121833 0
-0.0672867 0.125861 0
-0.0813882 0.127726 0
-0.0956427 0.127441 0
-0.109929 0.12485 0
-0.124116 0.119739 0
-0.138057 0.1119 0
-0.151575 0.101161 0
-0.164469 0.0874147 0
-0.176509 0.0706346 0
-0.187436 0.050898 0
-0.196966 0.028403 0
-0.204788 0.0034856 0
-0.210576 -0.0233655 0
-0.213986 -0.0517164 0
-0.214599 -0.0808518 0
-0.211873 -0.109787 0
-0.205159 -0.137202 0
-0.193753 -0.161339 0
-0.177042 -0.179907 0
-0.154726 -0.190098 0
-0.12717 -0.188834 0
-0.0958037 -0.173434 0
-0.0634711 -0.142912 0
-0.0343705 -0.0999069 0
-0.0130604 -0.0522979 0
-0.00244731 -0.0117838 0
-0.00151351 0.0305236 0
-0.00662677 0.0723721 0
-0.0151704 0.0996011 0
-0.0258751 0.116942 0
-0.037877 0.128034 0
-0.0506391 0.135171 0
-0.0638453 0.139544 0
-0.0773068 0.141607 0
-0.0908968 0.141405 0
-0.104511 0.138786 0
-0.118043 0.133524 0
-0.131377 0.12539 0
-0.144378 0.114191 0
-0.156892 0.099794 0
-0.168747 0.0821499 0
-0.179748 0.0613109 0
-0.189678 0.0374493 0
-0.198289 0.0108724 0
-0.205293 -0.0179596 0
-0.210395 -0.0486106 0
-0.213221 -0.0805186 0
-0.213209 -0.112858 0
-0.209599 -0.144456 0
-0.201463 -0.173625 0
-0.187827 -0.197969 0
-0.167909 -0.214269 0
-0.141523 -0.218606 0
-0.109609 -0.206942 0
-0.0748191 -0.176527 0
-0.0417895 -0.128422 0
-0.0163712 -0.070511 0
-0.00316193 -0.017393 0
-0.00131094 0.033348 0
-0.00585311 0.0792031 0
-0.013613 0.109074 0
-0.0234769 0.128038 0
-0.0346155 0.140078 0
-0.0464792 0.147753 0
-0.058733 0.152422 0
-0.0711789 0.154636 0
-0.0836942 0.154482 0
-0.0961904 0.151819 0
-0.108589 0.146421 0
-0.120809 0.138047 0
-0.132763 0.126489 0
-0.144354 0.111601 0
-0.155476 0.0933193 0
-0.166014 0.0716806 0
-0.17584 0.0468352 0
-0.184799 0.019056 0
-0.192685 -0.0112518 0
-0.199275 -0.0436269 0
-0.204261 -0.0776904 0
-0.207114 -0.112844 0
-0.207022 -0.148171 0
-0.202874 -0.182194 0
-0.193346 -0.212565 0
-0.177136 -0.2358 0
-0.153393 -0.247204 0
-0.122368 -0.241281 0
-0.0862379 -0.213108 0
-0.0497995 -0.161309 0
-0.0201573 -0.0926843 0
-0.00401572 -0.0245706 0
-0.00106964 0.0357286 0
-0.00491643 0.0852114 0
-0.0116959 0.117605 0
-0.0204816 0.138157 0
-0.030492 0.151108 0
-0.0411666 0.159261 0
-0.0521481 0.164149 0
-0.0632264 0.166433 0
-0.0742812 0.166255 0
-0.085241 0.163502 0
-0.0960561 0.157952 0
-0.106686 0.149366 0
-0.117092 0.13753 0
-0.127239 0.122297 0
-0.137094 0.1036 0
-0.146627 0.0814723 0
-0.155812 0.0560544 0
-0.164608 0.027591 0
-0.172938 -0.00357043 0
-0.180669 -0.0369873 0
-0.187581 -0.0724327 0
-0.193237 -0.109592 0
-0.196844 -0.147909 0
-0.197177 -0.186272 0
-0.192614 -0.222578 0
-0.181335 -0.253277 0
-0.161748 -0.273057 0
-0.133231 -0.274971 0
-0.097177 -0.251602 0
-0.0581777 -0.198253 0
-0.0243986 -0.119162 0
-0.00502335 -0.0336097 0
-0.000807398 0.0376056 0
-0.00388056 0.0902544 0
-0.00953817 0.124999 0
-0.0170587 0.147069 0
-0.02572 0.160868 0
-0.0349542 0.16941 0
-0.0443824 0.17441 0
-0.0537814 0.176649 0
-0.0630346 0.176346 0
-0.0720894 0.173425 0
-0.0809287 0.167684 0
-0.0895551 0.15889 0
-0.0979834 0.14684 0
-0.10624 0.13139 0
-0.114364 0.112485 0
-0.122413 0.0901695 0
-0.13046 0.0645891 0
-0.138586 0.0359781 0
-0.146852 0.0046381 0
-0.155248 -0.0290689 0
-0.163673 -0.0650139 0
-0.171835 -0.103192 0
-0.179036 -0.143501 0
-0.184037 -0.185347 0
-0.18501 -0.227092 0
-0.179671 -0.265382 0
-0.165667 -0.294542 0
-0.141354 -0.306318 0
-0.107037 -0.290625 0
-0.0666533 -0.238613 0
-0.0290655 -0.150169 0
-0.00620549 -0.0448385 0
-0.000545647 0.0389587 0
-0.00282437 0.0942532 0
-0.0072903 0.131123 0
-0.0134246 0.154599 0
-0.0205718 0.169146 0
-0.0281643 0.177958 0
-0.0358059 0.182931 0
-0.0432647 0.184986 0
-0.0504315 0.18443 0
-0.0572777 0.181242 0
-0.0638236 0.175252 0
-0.0701192 0.166244 0
-0.0762351 0.15403 0
-0.0822603 0.138482 0
-0.0883035 0.119561 0
-0.0944984 0.097337 0
-0.101007 0.0719773 0
-0.108018 0.0437266 0
-0.115722 0.0128594 0
-0.124249 -0.0203668 0
-0.133651 -0.0558892 0
-0.143804 -0.0940014 0
-0.154191 -0.135104 0
-0.163674 -0.17926 0
-0.170364 -0.225516 0
-0.171632 -0.271029 0
-0.164415 -0.310114 0
-0.145961 -0.333513 0
-0.115206 -0.328501 0
-0.0749249 -0.281403 0
-0.0341297 -0.185762 0
-0.00759549 -0.0586395 0
-0.000308835 0.0398132 0
-0.00184049 0.0972091 0
-0.00513224 0.135925 0
-0.00983901 0.160638 0
-0.0153729 0.175788 0
-0.0211768 0.184713 0
-0.026849 0.189491 0
-0.0321586 0.191195 0
-0.0370126 0.190242 0
-0.0414143 0.186678 0
-0.0454277 0.180375 0
-0.0491557 0.171145 0
-0.052728 0.158818 0
-0.0562967 0.143288 0
-0.0600359 0.124538 0
-0.0641454 0.102665 0
-0.0688561 0.0778688 0
-0.0744336 0.0504232 0
-0.0811698 0.0206029 0
-0.0893398 -0.0114124 0
-0.0991397 -0.0456424 0
-0.110621 -0.0826136 0
-0.123504 -0.123222 0
-0.136892 -0.168269 0
-0.149013 -0.217695 0
-0.157091 -0.269504 0
-0.157497 -0.318451 0
-0.14638 -0.354747 0
-0.121079 -0.363322 0
-0.0826692 -0.325273 0
-0.0395738 -0.225782 0
-0.00924616 -0.0754812 0
-0.000124638 0.0402466 0
-0.00103609 0.0992187 0
-0.00327437 0.139446 0
-0.00660444 0.165155 0
-0.0104959 0.180697 0
-0.0144173 0.189529 0
-0.0179817 0.193911 0
-0.0209774 0.19508 0
-0.0233427 0.193576 0
-0.0251239 0.189527 0
-0.0264368 0.182853 0
-0.0274423 0.1734 0
-0.0283326 0.161025 0
-0.0293245 0.145641 0
-0.0306556 0.127255 0
-0.0325851 0.105987 0
-0.0353962 0.0820685 0
-0.0394017 0.0558065 0
-0.044947 0.0275011 0
-0.0523982 -0.00268949 0
-0.0620668 -0.0348968 0
-0.0741575 -0.0697878 0
-0.0886523 -0.10867 0
-0.105005 -0.153081 0
-0.121774 -0.203994 0
-0.136308 -0.260594 0
-0.144668 -0.318594 0
-0.142046 -0.368343 0
-0.124052 -0.393022 0
-0.0895298 -0.368505 0
-0.0453886 -0.269786 0
-0.0112328 -0.0959602 0
-2.59139e-05 0.0403972 0
-0.000538503 0.100492 0
-0.00196436 0.141836 0
-0.0040694 0.168199 0
-0.00635779 0.183833 0
-0.00834535 0.192303 0
-0.0096931 0.196049 0
-0.010238 0.196482 0
-0.00997167 0.194273 0
-0.00899926 0.189639 0
-0.00749815 0.182553 0
-0.00569189 0.172899 0
-0.00383768 0.160562 0
-0.00221777 0.145476 0
-0.00113276 0.127666 0
-0.000897869 0.10727 0
-0.00184004 0.0845384 0
-0.00429679 0.0597987 0
-0.00861909 0.0333765 0
-0.0151775 0.00544475 0
-0.0243318 -0.024208 0
-0.0363866 -0.0563312 0
-0.0515439 -0.0924744 0
-0.0696681 -0.134799 0
-0.0898456 -0.185329 0
-0.109877 -0.244694 0
-0.125902 -0.310108 0
-0.132461 -0.372893 0
-0.123471 -0.415456 0
-0.0950679 -0.408996 0
-0.0515447 -0.31696 0
-0.0136468 -0.12084 0
-5.61755e-05 0.0404793 0
-0.000510062 0.101377 0
-0.00150416 0.143372 0
-0.0026388 0.169903 0
-0.00341852 0.185197 0
-0.00344138 0.192949 0
-0.00246712 0.195776 0
-0.000424186 0.195257 0
0.00261064 0.192197 0
0.00645328 0.1869 0
0.0108515 0.179392 0
0.0155089 0.169596 0
0.0201005 0.15742 0
0.0242813 0.142818 0
0.0276936 0.125827 0
0.0299747 0.106593 0
0.0307669 0.0853654 0
0.0297282 0.0624672 0
0.0265392 0.0382193 0
0.0209007 0.0127989 0
0.0124977 -0.0140048 0
0.000997276 -0.0429793 0
-0.0139512 -0.0757206 0
-0.0325734 -0.114807 0
-0.0545965 -0.163121 0
-0.0786012 -0.222867 0
-0.101301 -0.293211 0
-0.117111 -0.367421 0
-0.118531 -0.428498 0
-0.0986584 -0.444229 0
-0.0579208 -0.365988 0
-0.0165723 -0.151059 0
-0.000281756 0.0408172 0
-0.00117885 0.10239 0
-0.00228239 0.144456 0
-0.00279134 0.170462 0
-0.00217804 0.184804 0
-0.000182909 0.19137 0
0.00326281 0.192936 0
0.00807055 0.191247 0
0.0140271 0.187216 0
0.0208476 0.181218 0
0.0281988 0.173325 0
0.0357152 0.163489 0
0.043011 0.151639 0
0.0496882 0.137741 0
0.0553442 0.121836 0
0.0595832 0.104064 0
0.06203 0.0846552 0
0.0623464 0.0638996 0
0.0602442 0.042078 0
0.0554847 0.0193382 0
0.0478474 -0.00450381 0
0.0370945 -0.0302269 0
0.0229417 -0.0593717 0
0.00496956 -0.0945611 0
-0.0172375 -0.139136 0
-0.043278 -0.196806 0
-0.0709605 -0.26889 0
-0.0953348 -0.351558 0
-0.108114 -0.430162 0
-0.099311 -0.471242 0
-0.0641681 -0.414855 0
-0.0200382 -0.187669 0
-0.000815941 0.0419149 0
-0.00289378 0.104267 0
-0.00482255 0.145611 0
-0.00509528 0.170089 0
-0.00315851 0.182627 0
0.00099238 0.1874 0
0.00713128 0.187321 0
0.0149274 0.184258 0
0.0239928 0.179183 0
0.0339209 0.172502 0
0.0442946 0.164315 0
0.0546883 0.154589 0
0.0646704 0.143262 0
0.0738084 0.130303 0
0.0816758 0.11575 0
0.0878648 0.0997223 0
0.092002 0.0824131 0
0.0937673 0.06406 0
0.0929072 0.04488 0
0.0892369 0.024966 0
0.0826143 0.00412825 0
0.0728661 -0.0183579 0
0.0597353 -0.0439572 0
0.042835 -0.075103 0
0.021655 -0.115207 0
-0.0043696 -0.16867 0
-0.0347788 -0.238934 0
-0.0661709 -0.325747 0
-0.0905739 -0.41879 0
-0.0953998 -0.486591 0
-0.0694823 -0.460567 0
-0.0239312 -0.231639 0
-0.00186223 0.0445931 0
-0.0062071 0.108011 0
-0.00982562 0.147414 0
-0.0101808 0.168914 0
-0.00682456 0.178509 0
-0.000210919 0.180754 0
0.00898228 0.178635 0
0.0200935 0.174036 0
0.0325248 0.167908 0
0.0457406 0.160634 0
0.0592491 0.152302 0
0.0725829 0.142875 0
0.0852883 0.132288 0
0.0969238 0.120503 0
0.107065 0.107541 0
0.115318 0.0934898 0
0.121332 0.0784945 0
0.124818 0.0627273 0
0.125561 0.04633 0
0.123418 0.0293293 0
0.118295 0.011511 0
0.110076 -0.00777386 0
0.0985203 -0.0298549 0
0.0832158 -0.0570005 0
0.0635501 -0.0924641 0
0.0386762 -0.140515 0
0.00782875 -0.205833 0
-0.0281816 -0.291446 0
-0.0634992 -0.393371 0
-0.0842874 -0.486396 0
-0.0722368 -0.49873 0
-0.0278469 -0.283417 0
-0.00377962 0.0502349 0
-0.0119518 0.114887 0
-0.0181032 0.150309 0
-0.0185099 0.166781 0
-0.0132347 0.172011 0
-0.00351954 0.170924 0
0.00933333 0.166419 0
0.0242595 0.160215 0
0.0404373 0.15312 0
0.0572201 0.145423 0
0.0740695 0.137155 0
0.0905072 0.128251 0
0.106089 0.118626 0
0.120394 0.108225 0
0.13303 0.0970419 0
0.14364 0.0851263 0
0.151915 0.0725688 0
0.157609 0.0594728 0
0.160544 0.0459066 0
0.160607 0.0318332 0
0.157725 0.0170131 0
0.151805 0.000862129 0
0.142609 -0.0177394 0
0.129677 -0.0408797 0
0.11226 -0.0715021 0
0.0892014 -0.113544 0
0.0590402 -0.171795 0
0.0207728 -0.251206 0
-0.0234956 -0.354025 0
-0.0618435 -0.466606 0
-0.0693953 -0.523019 0
-0.0308246 -0.342089 0
-0.00713709 0.0611516 0
-0.0211348 0.12614 0
-0.0300362 0.154109 0
-0.0294726 0.162824 0
-0.0209085 0.162128 0
-0.00682249 0.157005 0
0.0107259 0.149937 0
0.0302673 0.14223 0
0.0507998 0.134395 0
0.071625 0.12654 0
0.0922102 0.118603 0
0.11211 0.110466 0
0.130926 0.102014 0
0.148292 0.0931654 0
0.163872 0.0838845 0
0.177368 0.0741781 0
0.188526 0.0640839 0
0.197145 0.0536441 0
0.203079 0.0428657 0
0.206226 0.0316649 0
0.206499 0.019791 0
0.203779 0.00672363 0
0.197842 -0.00846783 0
0.188175 -0.0275528 0
0.173823 -0.0530602 0
0.153287 -0.0883907 0
0.124461 -0.137961 0
0.0849968 -0.207308 0
0.0339618 -0.302619 0
-0.0219019 -0.4238 0
-0.0555512 -0.524623 0
-0.0308462 -0.403759 0
-0.012545 0.0808338 0
-0.0338947 0.141805 0
-0.0433158 0.156766 0
-0.0383347 0.154623 0
-0.023342 0.146773 0
-0.00244312 0.137375 0
0.0215943 0.127981 0
0.0470611 0.119177 0
0.0729454 0.11103 0
0.0986115 0.103413 0
0.123611 0.0961448 0
0.147588 0.0890473 0
0.170232 0.0819724 0
0.19126 0.0748122 0
0.210417 0.0675008 0
0.227474 0.0600093 0
0.242237 0.0523318 0
0.254549 0.0444646 0
0.264285 0.0363747 0
0.271338 0.0279566 0
0.275589 0.0189745 0
0.276868 0.00898198 0
0.274876 -0.00279739 0
0.269023 -0.0177038 0
0.25818 -0.0377147 0
0.240491 -0.0655108 0
0.213248 -0.104772 0
0.172983 -0.160768 0
0.116367 -0.241508 0
0.0443093 -0.35699 0
-0.0213047 -0.49217 0
-0.0238086 -0.458414 0