# vtk DataFile Version 2.0
Lid-driven cavity
ASCII
DATASET STRUCTURED_POINTS
DIMENSIONS 32 32 1
ORIGIN 0.015625 0.015625 0
SPACING 0.03125 0.03125 1
POINT_DATA 1024
SCALARS pressure double 1
LOOKUP_TABLE default
6.0985
6.0567
6.00604
5.97032
5.96116
5.98296
6.03671
6.12228
6.23952
6.38855
6.56964
6.78283
7.02747
7.30175
7.60228
7.92375
8.25883
8.59841
8.93135
9.24519
9.52725
9.76605
9.95276
10.0825
10.155
10.1753
10.1524
10.0991
10.0301
9.96132
9.90881
9.88697
6.14031
6.09738
6.05879
6.03656
6.03791
6.06627
6.12297
6.2085
6.32316
6.46734
6.64138
6.84532
7.0785
7.33917
7.62412
7.9284
8.24517
8.56611
8.88096
9.1781
9.44583
9.67358
9.85332
9.98075
10.056
10.0839
10.073
10.0348
9.98214
9.92832
9.88575
9.86512
6.192
6.13323
6.09358
6.07625
6.08338
6.11599
6.17449
6.25923
6.37068
6.50948
6.67626
6.87136
7.09449
7.34432
7.61812
7.91142
8.21786
8.52959
8.83663
9.12749
9.39045
9.61485
9.79252
9.91908
9.9947
10.0242
10.0163
9.9822
9.93402
9.88333
9.84034
9.81308
6.22637
6.14796
6.10133
6.08362
6.09267
6.1269
6.1854
6.26801
6.37518
6.5078
6.66692
6.85343
7.06765
7.30896
7.57535
7.86304
8.16614
8.47682
8.78505
9.07892
9.34598
9.57465
9.75584
9.8844
9.96012
9.98789
9.97684
9.9387
9.88577
9.82932
9.77858
9.74023
6.22397
6.12633
6.07068
6.04977
6.05795
6.09136
6.14782
6.2266
6.32807
6.45342
6.60419
6.78196
6.98791
7.22235
7.4842
7.7706
8.07625
8.39303
8.7106
9.01632
9.29649
9.53791
9.72971
9.86516
9.94306
9.96811
9.95006
9.90179
9.8369
9.7676
9.70356
9.65164
6.16986
6.05468
5.9898
5.9643
5.96968
6.00018
6.05255
6.12558
6.21963
6.33617
6.47737
6.64559
6.84301
7.07107
7.3299
7.61778
7.93044
8.25923
8.59358
8.91999
9.22312
9.48743
9.69932
9.84943
9.93457
9.95861
9.93187
9.86901
9.78604
9.69756
9.6152
9.54736
6.05154
5.92071
5.84706
5.8163
5.81746
5.84321
5.88942
5.95454
6.03896
6.14451
6.27396
6.43059
6.61771
6.83805
7.09323
7.38302
7.70479
8.04974
8.40728
8.76324
9.10042
9.40027
9.6453
9.82204
9.92374
9.95225
9.91794
9.83767
9.73114
9.61708
9.51074
9.42343
5.85791
5.71317
5.63135
5.59491
5.59062
5.60977
5.64753
5.70209
5.7739
5.86512
5.97918
6.12027
6.29291
6.50139
6.74912
7.03785
7.36704
7.7294
8.11463
8.50849
8.89205
9.24317
9.53918
9.76049
9.89446
9.93871
9.9023
9.80429
9.66942
9.52274
9.38535
9.27291
5.57884
5.4218
5.3323
5.28967
5.27853
5.28896
5.31547
5.35599
5.411
5.48293
5.57575
5.69455
5.84519
6.0337
6.26569
6.54547
6.87522
7.25153
7.66533
8.1036
8.54631
8.96756
9.33815
9.6299
9.82094
9.90105
9.87521
9.76359
9.59715
9.41008
9.23248
9.08668
5.20525
5.03738
4.94049
4.89088
4.87112
4.87011
4.88173
4.90355
4.93592
4.98135
5.04421
5.1304
5.24711
5.40239
5.60451
5.86109
6.17792
6.55739
6.99452
7.47953
7.99281
8.50511
8.97975
9.37724
9.66211
9.811
9.81975
9.70662
9.50899
9.27364
9.04441
8.85396
4.72922
4.55198
4.44775
4.38995
4.35924
4.34334
4.33536
4.33234
4.33424
4.34337
4.36417
4.40316
4.46884
4.57147
4.72253
4.93391
5.2165
5.57847
6.02438
6.55099
7.14168
7.76542
8.37797
8.92613
9.3558
9.62327
9.70726
9.61782
9.39677
9.10682
8.81236
8.56247
4.14445
3.95928
3.84752
3.77995
3.73538
3.7003
3.6669
3.63141
3.59298
3.5533
3.51647
3.48926
3.48131
3.50518
3.57616
3.71138
3.92827
4.24219
4.66983
5.22152
5.8875
6.63818
7.42318
8.17438
8.81424
9.27004
9.49209
9.4713
9.24766
8.90159
8.52688
8.19886
3.44663
3.25501
3.13537
3.05611
2.99432
2.93517
2.86969
2.79287
2.70262
2.5994
2.4864
2.37011
2.26094
2.17376
2.12802
2.14712
2.25672
2.48162
2.8494
3.39444
4.11958
5.00169
5.98807
6.99672
7.92341
8.65755
9.1069
9.22662
9.04186
8.64808
8.17846
7.7495
2.6338
2.43724
2.30931
2.2164
2.13396
2.0457
1.9412
1.81378
1.6595
1.47691
1.26756
1.03693
0.795644
0.56057
0.3555
0.210931
0.162476
0.24756
0.501541
0.989856
1.73913
2.73937
3.94194
5.25544
6.54907
7.66751
8.46056
8.82544
8.75027
8.33452
7.75884
7.20196
1.70668
1.50663
1.37013
1.26193
1.15589
1.03415
0.88444
0.697951
0.468235
0.191182
-0.134174
-0.504212
-0.90892
-1.33005
-1.73969
-2.09991
-2.364
-2.48021
-2.39828
-2.03468
-1.31783
-0.236593
1.1735
2.82033
4.55186
6.16605
7.44128
8.19086
8.33331
7.94779
7.26344
6.54788
0.668592
0.466372
0.32136
0.197081
0.0658386
-0.0920438
-0.29102
-0.542583
-0.856325
-1.2398
-1.69737
-2.22827
-2.8241
-3.46615
-4.12312
-4.74984
-5.28799
-5.66963
-5.82446
-5.66253
-5.05526
-3.95715
-2.37966
-0.402823
1.8121
4.02229
5.92762
7.23191
7.7422
7.47546
6.69551
5.78768
-0.47487
-0.678257
-0.831102
-0.970731
-1.12645
-1.32006
-1.56864
-1.88688
-2.28814
-2.78412
-3.38344
-4.08914
-4.89554
-5.78467
-6.72298
-7.65906
-8.52339
-9.23128
-9.69001
-9.80163
-9.39555
-8.36986
-6.7004
-4.43914
-1.73778
1.13635
3.80894
5.85556
6.92494
6.91048
6.0728
4.93797
-1.71665
-1.92075
-2.07984
-2.23179
-2.40775
-2.63213
-2.92519
-3.30536
-3.79029
-4.39643
-5.1373
-6.02061
-7.04438
-8.19267
-9.43119
-10.704
-11.9319
-13.0146
-13.8371
-14.2818
-14.1679
-13.3216
-11.6679
-9.21427
-6.07895
-2.52648
1.0146
3.98745
5.83902
6.26037
5.43802
4.04324
-3.04954
-3.25476
-3.41727
-3.57531
-3.76247
-4.0066
-4.3319
-4.76115
-5.31677
-6.02033
-6.89068
-7.94066
-9.17279
-10.5742
-12.1116
-13.7263
-15.3323
-16.8165
-18.044
-18.8704
-19.1171
-18.5592
-17.0493
-14.5363
-11.0788
-6.90223
-2.45189
1.60089
4.47237
5.56287
4.87521
3.19406
-4.4681
-4.67612
-4.83756
-4.99118
-5.17421
-5.41941
-5.75614
-6.2123
-6.81549
-7.59257
-8.56771
-9.75896
-11.1736
-12.8026
-14.6147
-16.551
-18.5215
-20.4042
-22.0489
-23.2868
-23.9334
-23.7503
-22.5144
-20.0989
-16.4806
-11.805
-6.48093
-1.24951
2.8727
4.91068
4.53527
2.55657
-5.97118
-6.18548
-6.33902
-6.47195
-6.62752
-6.84592
-7.16356
-7.6146
-8.23219
-9.04833
-10.0921
-11.3862
-12.9424
-14.7554
-16.7969
-19.0096
-21.3023
-23.5489
-25.5896
-27.239
-28.2972
-28.5302
-27.6755
-25.5118
-21.9188
-16.924
-10.8366
-4.3962
1.18285
4.48672
4.6749
2.41922
-7.56557
-7.79194
-7.92722
-8.01523
-8.10971
-8.26256
-8.52019
-8.9245
-9.51453
-10.327
-11.3947
-12.7441
-14.39
-16.3305
-18.5401
-20.9641
-23.5129
-26.0601
-28.4429
-30.4676
-31.919
-32.5665
-32.1469
-30.3557
-26.9617
-21.8466
-15.1567
-7.53746
-0.323216
4.60947
5.71318
3.2643
-9.2713
-9.51828
-9.61885
-9.62608
-9.61233
-9.6481
-9.79407
-10.1017
-10.616
-11.3772
-12.4204
-13.7735
-15.4529
-17.4584
-19.767
-22.3267
-25.0511
-27.8167
-30.4626
-32.7942
-34.59
-35.6149
-35.6131
-34.2511
-31.1753
-26.1075
-18.9779
-10.2347
-1.21201
5.78356
8.30625
5.86939
-11.1304
-11.409
-11.447
-11.3195
-11.132
-10.9841
-10.9563
-11.1111
-11.4989
-12.1614
-13.1336
-14.4431
-16.1058
-18.1212
-20.4667
-23.0914
-25.9113
-28.8067
-31.6216
-34.1668
-36.2245
-37.553
-37.8932
-36.9223
-34.191
-29.2505
-21.7804
-11.9307
-0.878188
8.74548
13.4344
11.4389
-13.223
-13.5439
-13.4689
-13.1229
-12.6699
-12.2538
-11.9804
-11.9237
-12.1365
-12.6589
-13.523
-14.7526
-16.3607
-18.3443
-20.6789
-23.3131
-26.1637
-29.1137
-32.0117
-34.6747
-36.8913
-38.4232
-38.9933
-38.2611
-35.7563
-30.8829
-23.0362
-11.9816
1.44719
14.49
22.4863
21.7595
-15.7004
-16.0628
-15.7763
-15.0765
-14.2286
-13.4386
-12.8403
-12.5149
-12.5113
-12.8625
-13.5929
-14.7197
-16.25
-18.1758
-20.4692
-23.0764
-25.9135
-28.8642
-31.7797
-34.48
-36.7573
-38.3754
-39.0506
-38.3856
-35.8584
-30.7371
-22.2416
-9.68717
6.67221
24.2626
37.3179
39.3707
-18.8565
-19.211
-18.5096
-17.2287
-15.8006
-14.5072
-13.5018
-12.8587
-12.6106
-12.7745
-13.3618
-14.3789
-15.8245
-17.684
-19.924
-22.4872
-25.2872
-28.2066
-31.0957
-33.7735
-36.0286
-37.6173
-38.2508
-37.4704
-34.637
-28.8638
-19.0876
-4.30997
15.8131
39.503
60.2522
67.7441
-23.296
-23.4204
-21.8617
-19.6071
-17.3354
-15.3886
-13.9021
-12.9119
-12.4128
-12.3945
-12.8488
-13.7678
-15.1392
-16.9404
-19.1315
-21.6503
-24.4068
-27.2804
-30.1175
-32.7311
-34.8983
-36.3554
-36.7855
-35.6824
-32.2224
-25.3159
-13.5607
4.52866
29.9422
61.7195
93.958
111.475
-30.3506
-29.421
-26.0091
-22.1064
-18.6436
-15.8995
-13.8964
-12.5694
-11.848
-11.6827
-12.0397
-12.8937
-14.2205
-15.988
-18.1496
-20.6373
-23.3563
-26.1815
-28.9531
-31.4734
-33.5008
-34.739
-34.8163
-33.168
-28.738
-20.1687
-5.67427
16.8232
49.2939
92.2506
141.051
176.475
-43.1377
-38.1643
-30.7005
-24.1243
-19.1499
-15.5803
-13.1179
-11.5429
-10.6982
-10.4804
-10.8239
-11.6847
-13.0262
-14.8081
-16.9774
-19.4612
-22.1604
-24.9446
-27.6465
-30.0553
-31.9056
-32.8584
-32.4686
-30.0632
-24.3585
-13.7056
4.09721
31.8533
72.9327
130.603
203.987
269.912
-68.8933
-49.1097
-33.6651
-23.5636
-17.201
-13.1909
-10.6878
-9.22293
-8.53722
-8.48572
-8.9856
-9.98519
-11.4443
-13.3207
-15.5599
-18.0876
-20.8029
-23.5722
-26.222
-28.5287
-30.2026
-30.8599
-29.9743
-26.7142
-19.6616
-6.94954
13.9949
46.7634
96.6312
171.979
284.951
421.982
-131.408
-52.467
-25.3872
-14.7323
-9.74635
-7.12478
-5.72599
-5.10268
-5.05966
-5.50558
-6.39538
-7.7031
-9.40611
-11.4744
-13.8623
-16.5017
-19.2963
-22.1148
-24.7829
-27.0718
-28.6783
-29.1888
-28.0145
-24.2313
-16.431
-2.6652
19.8178
55.1035
110.058
199.051
360.432
693.94
VECTORS velocity double
5.62046e-05 -5.62046e-05 0
7.19612e-05 4.04479e-05 0
-0.000140164 0.000171677 0
-0.000591269 0.000279429 0
-0.00122464 0.000353939 0
-0.00198013 0.000401559 0
-0.0028127 0.00043101 0
-0.00369209 0.000448372 0
-0.00459651 0.000456056 0
-0.00550598 0.000453409 0
-0.00639721 0.000437825 0
-0.00724088 0.00040584 0
-0.00800081 0.00035409 0
-0.00863501 0.000280107 0
-0.00909813 0.000183016 0
-0.00934527 6.41209e-05 0
-0.0093366 -7.27849e-05 0
-0.00904263 -0.000221188 0
-0.00845058 -0.000370864 0
-0.00757083 -0.000508881 0
-0.00644112 -0.000620832 0
-0.0051276 -0.00069269 0
-0.00372175 -0.000713161 0
-0.00233243 -0.000676152 0
-0.00107352 -0.000582766 0
-4.85426e-05 -0.000442208 0
0.000664986 -0.00027132 0
0.0010288 -9.2492e-05 0
0.00105321 6.80827e-05 0
0.000805097 0.000180026 0
0.000418652 0.000206418 0
0.000106117 0.000106117 0
-4.43235e-05 -6.80857e-05 0
-0.000389312 0.000381561 0
-0.00126879 0.000922167 0
-0.00265959 0.00137084 0
-0.00445456 0.00169086 0
-0.00653546 0.00190104 0
-0.0088022 0.00203084 0
-0.011176 0.00210173 0
-0.0135912 0.0021223 0
-0.0159845 0.00208991 0
-0.0182866 0.00199475 0
-0.0204181 0.00182406 0
-0.0222883 0.00156601 0
-0.0237989 0.00121291 0
-0.0248494 0.000763881 0
-0.025346 0.00022702 0
-0.0252111 -0.000379287 0
-0.0243944 -0.00102535 0
-0.0228842 -0.001669 0
-0.0207163 -0.00225834 0
-0.0179811 -0.00273632 0
-0.0148242 -0.0030476 0
-0.0114412 -0.00314713 0
-0.00806319 -0.00300948 0
-0.00493465 -0.00263688 0
-0.00228397 -0.00206375 0
-0.00029107 -0.0013562 0
0.000943756 -0.000606248 0
0.00142482 7.63617e-05 0
0.00127599 0.000568693 0
0.000746211 0.000733971 0
0.000212538 0.000424772 0
-0.000208915 0.000185153 0
-0.00106533 0.00132972 0
-0.00275259 0.00254074 0
-0.00514422 0.0035347 0
-0.00807519 0.00425294 0
-0.0113861 0.00473073 0
-0.014941 0.00502281 0
-0.0186266 0.00516915 0
-0.0223417 0.00518521 0
-0.0259863 0.00506481 0
-0.0294524 0.00478816 0
-0.032621 0.0043307 0
-0.0353624 0.00367107 0
-0.0375418 0.00279778 0
-0.0390268 0.00171453 0
-0.0396981 0.000444257 0
-0.0394615 -0.000968052 0
-0.0382607 -0.00245409 0
-0.036088 -0.00392315 0
-0.0329945 -0.00526559 0
-0.0290973 -0.00636145 0
-0.0245831 -0.00709356 0
-0.0197029 -0.00736442 0
-0.014758 -0.00711503 0
-0.0100753 -0.00634254 0
-0.00597165 -0.00511247 0
-0.00271087 -0.00356116 0
-0.000459997 -0.00188699 0
0.000748661 -0.000332624 0
0.0010423 0.000832874 0
0.000713578 0.00132829 0
0.000220197 0.000857506 0
-0.000387975 0.000782044 0
-0.0018029 0.00300417 0
-0.00435647 0.00510714 0
-0.00777981 0.00678327 0
-0.0118327 0.00798821 0
-0.0163147 0.00878839 0
-0.0210629 0.00926821 0
-0.0259396 0.00948601 0
-0.0308184 0.00946232 0
-0.0355718 0.00918563 0
-0.0400635 0.00862519 0
-0.0441462 0.00774497 0
-0.047664 0.00651606 0
-0.0504586 0.00492673 0
-0.0523782 0.00299018 0
-0.0532886 0.000750256 0
-0.0530847 -0.00171455 0
-0.0517018 -0.00429126 0
-0.0491256 -0.00683486 0
-0.0454029 -0.00917021 0
-0.0406527 -0.0111041 0
-0.0350733 -0.0124445 0
-0.0289417 -0.0130254 0
-0.022603 -0.0127375 0
-0.0164477 -0.011558 0
-0.010873 -0.00957537 0
-0.0062321 -0.00699994 0
-0.00277636 -0.00415482 0
-0.000602682 -0.00144714 0
0.000382066 0.000668995 0
0.000475872 0.00172709 0
0.000175129 0.00125283 0
-0.000566324 0.00173634 0
-0.00254337 0.00544183 0
-0.00596989 0.00864958 0
-0.0104206 0.0111148 0
-0.0155703 0.0128593 0
-0.0211762 0.0140053 0
-0.0270526 0.0146757 0
-0.0330455 0.014948 0
-0.0390125 0.0148461 0
-0.0448087 0.0143514 0
-0.0502794 0.0134218 0
-0.0552588 0.0120106 0
-0.0595738 0.0100832 0
-0.06305 0.00763033 0
-0.0655209 0.00467713 0
-0.0668377 0.00129044 0
-0.0668794 -0.00241696 0
-0.0655619 -0.00628917 0
-0.0628468 -0.0101283 0
-0.0587551 -0.0136912 0
-0.053384 -0.0167043 0
-0.0469201 -0.0188876 0
-0.0396453 -0.0199886 0
-0.0319344 -0.0198239 0
-0.0242358 -0.0183257 0
-0.0170338 -0.0155844 0
-0.0107906 -0.0118751 0
-0.00587204 -0.00765394 0
-0.00247431 -0.00351943 0
-0.000568817 -0.000148951 0
0.000120216 0.00176219 0
0.000105361 0.00153332 0
-0.000738884 0.00304155 0
-0.00326157 0.00863635 0
-0.00753615 0.0131562 0
-0.0129818 0.0165045 0
-0.0191882 0.0188258 0
-0.0258719 0.0203284 0
-0.0328285 0.0211857 0
-0.0398948 0.0214973 0
-0.0469204 0.0212895 0
-0.0537517 0.0205355 0
-0.0602241 0.0191808 0
-0.0661609 0.0171679 0
-0.0713769 0.0144568 0
-0.075684 0.01104 0
-0.0788993 0.00695366 0
-0.0808535 0.00228491 0
-0.0813999 -0.00282337 0
-0.0804208 -0.00817928 0
-0.0778362 -0.013538 0
-0.0736212 -0.0185883 0
-0.0678298 -0.0229697 0
-0.0606157 -0.0263003 0
-0.0522482 -0.0282182 0
-0.0431181 -0.0284353 0
-0.0337281 -0.0268029 0
-0.0246589 -0.0233782 0
-0.0165069 -0.0184765 0
-0.00979267 -0.0126853 0
-0.00485766 -0.00682081 0
-0.00177826 -0.00183246 0
-0.000325672 0.00130408 0
2.09667e-05 0.00165965 0
-0.00090255 0.00468299 0
-0.00394165 0.0125567 0
-0.00901784 0.0185866 0
-0.0154044 0.0229063 0
-0.0226126 0.0258387 0
-0.0303232 0.0277097 0
-0.0383192 0.028757 0
-0.0464338 0.0291068 0
-0.0545158 0.0287877 0
-0.0624102 0.027763 0
-0.0699487 0.0259642 0
-0.0769486 0.0233212 0
-0.0832145 0.0197854 0
-0.0885437 0.0153476 0
-0.0927318 0.0100495 0
-0.0955805 0.00399209 0
-0.0969055 -0.00265924 0
-0.0965437 -0.00968419 0
-0.0943605 -0.0168009 0
-0.0902685 -0.0236323 0
-0.0842604 -0.0297252 0
-0.0764376 -0.0345817 0
-0.0670361 -0.0377057 0
-0.0564451 -0.0386688 0
-0.0452102 -0.0371945 0
-0.0340107 -0.0332553 0
-0.0235991 -0.027163 0
-0.0146946 -0.0196175 0
-0.00784376 -0.0116745 0
-0.00328487 -0.00461705 0
-0.000871518 0.000222739 0
-7.88912e-05 0.00160173 0
-0.00105374 0.00663927 0
-0.00456805 0.0171538 0
-0.0103809 0.0248785 0
-0.0176349 0.0302549 0
-0.025774 0.0338373 0
-0.0344507 0.0360984 0
-0.043441 0.0373547 0
-0.0525806 0.0377632 0
-0.061723 0.0373557 0
-0.070717 0.0360834 0
-0.0793954 0.0338609 0
-0.0875719 0.0306009 0
-0.0950414 0.0262411 0
-0.101583 0.020763 0
-0.106966 0.0142055 0
-0.110956 0.00667432 0
-0.11332 -0.00165228 0
-0.113843 -0.01053 0
-0.112328 -0.0196532 0
-0.108616 -0.028584 0
-0.102624 -0.0367742 0
-0.0943807 -0.0435986 0
-0.0840666 -0.0484044 0
-0.0720425 -0.0505851 0
-0.058873 -0.0496826 0
-0.0453228 -0.045517 0
-0.0323089 -0.0383268 0
-0.0207894 -0.0288776 0
-0.0115847 -0.01847 0
-0.00517423 -0.008791 0
-0.00155054 -0.00164036 0
-0.000200592 0.00132224 0
-0.0011878 0.00888082 0
-0.00512253 0.0223613 0
-0.0115879 0.0319492 0
-0.0196158 0.0384661 0
-0.0285955 0.0427448 0
-0.0381597 0.0454319 0
-0.0480831 0.0469351 0
-0.058208 0.0474473 0
-0.0683972 0.0470031 0
-0.0785071 0.0455398 0
-0.0883745 0.0429503 0
-0.0978108 0.0391242 0
-0.106601 0.0339773 0
-0.114505 0.0274725 0
-0.121261 0.0196356 0
-0.126594 0.0105663 0
-0.130221 0.000446703 0
-0.131868 -0.0104583 0
-0.131278 -0.0218299 0
-0.128216 -0.033181 0
-0.122514 -0.0438719 0
-0.114113 -0.0531452 0
-0.103109 -0.0601756 0
-0.0898019 -0.0641455 0
-0.0747349 -0.0643587 0
-0.0587243 -0.0604017 0
-0.0428378 -0.0523423 0
-0.0282953 -0.0409241 0
-0.016262 -0.0276616 0
-0.00756001 -0.0147118 0
-0.00241176 -0.00449144 0
-0.000355019 0.000766631 0
-0.00129912 0.0113677 0
-0.00558386 0.0280939 0
-0.0125964 0.0396946 0
-0.0212815 0.0474338 0
-0.0309876 0.0524629 0
-0.0413349 0.0556252 0
-0.0521007 0.057431 0
-0.0631374 0.058113 0
-0.0743193 0.0577086 0
-0.0855131 0.056138 0
-0.0965613 0.0532677 0
-0.107275 0.0489569 0
-0.11743 0.0430902 0
-0.126769 0.0356018 0
-0.134999 0.0264932 0
-0.141806 0.0158482 0
-0.146858 0.00384403 0
-0.149826 -0.00924004 0
-0.150394 -0.0230711 0
-0.14826 -0.0371352 0
-0.143168 -0.0507122 0
-0.134955 -0.0629186 0
-0.123609 -0.0727518 0
-0.109325 -0.0791605 0
-0.0925758 -0.0811603 0
-0.0741703 -0.0780163 0
-0.0552832 -0.0695014 0
-0.0373902 -0.0562005 0
-0.0220582 -0.0397506 0
-0.0105715 -0.0228115 0
-0.00351469 -0.00859686 0
-0.000555497 -0.000143885 0
-0.00138151 0.0140484 0
-0.00592898 0.0342454 0
-0.0133604 0.047987 0
-0.0225607 0.0570267 0
-0.0328504 0.0628657 0
-0.0438428 0.066562 0
-0.0553201 0.0687374 0
-0.0671455 0.0696686 0
-0.079206 0.0693955 0
-0.09138 0.0678187 0
-0.103518 0.0647731 0
-0.115433 0.0600801 0
-0.126896 0.0535852 0
-0.137634 0.0451837 0
-0.147336 0.0348431 0
-0.155652 0.0226214 0
-0.162212 0.00868292 0
-0.166634 -0.00668937 0
-0.168555 -0.023133 0
-0.167621 -0.0401402 0
-0.16349 -0.0569308 0
-0.15589 -0.0725128 0
-0.144675 -0.0857183 0
-0.129896 -0.0952572 0
-0.111889 -0.0998204 0
-0.0913815 -0.098269 0
-0.0695775 -0.0899398 0
-0.0481616 -0.075071 0
-0.0291266 -0.0552471 0
-0.0143397 -0.0335885 0
-0.00492538 -0.014291 0
-0.00081747 -0.00151685 0
-0.00142892 0.0168588 0
-0.0061353 0.0406889 0
-0.0138347 0.0566744 0
-0.0233816 0.0670865 0
-0.0340811 0.0737953 0
-0.0455425 0.0780862 0
-0.0575525 0.0807006 0
-0.0699841 0.0819624 0
-0.0827367 0.0819149 0
-0.0957005 0.0804371 0
-0.108736 0.0773284 0
-0.121664 0.0723674 0
-0.134256 0.065353 0
-0.146236 0.0561347 0
-0.157281 0.0446377 0
-0.167023 0.0308859 0
-0.175067 0.0150221 0
-0.180998 -0.0026762 0
-0.184416 -0.021806 0
-0.184926 -0.0418912 0
-0.182115 -0.0621221 0
-0.175605 -0.0814313 0
-0.165103 -0.0985163 0
-0.150475 -0.111866 0
-0.131858 -0.119836 0
-0.109802 -0.120816 0
-0.0854354 -0.113564 0
-0.0605559 -0.0977422 0
-0.0375553 -0.0746114 0
-0.0189813 -0.0475851 0
-0.00671237 -0.0219776 0
-0.00115809 -0.00349241 0
-0.00143628 0.019724 0
-0.00618375 0.0472775 0
-0.0139802 0.0655815 0
-0.023681 0.0774271 0
-0.0345863 0.0850595 0
-0.0463021 0.089999 0
-0.0586168 0.0931126 0
-0.0714102 0.0947754 0
-0.0845921 0.0950364 0
-0.0980653 0.0937527 0
-0.111704 0.0906869 0
-0.125339 0.0855721 0
-0.138756 0.0781572 0
-0.151686 0.0682412 0
-0.163813 0.0557018 0
-0.174771 0.0405227 0
-0.18416 0.0228179 0
-0.191554 0.00285262 0
-0.196527 -0.0189429 0
-0.198657 -0.0421149 0
-0.197496 -0.0658711 0
-0.192571 -0.089117 0
-0.183436 -0.110467 0
-0.169744 -0.128235 0
-0.151369 -0.14046 0
-0.128589 -0.145027 0
-0.10232 -0.139989 0
-0.0743345 -0.124181 0
-0.0473306 -0.0981768 0
-0.024579 -0.0653453 0
-0.00894158 -0.0321237 0
-0.00159583 -0.00624633 0
-0.00140054 0.0225608 0
-0.00606229 0.0538499 0
-0.0137709 0.0745142 0
-0.0234143 0.0878387 0
-0.0342965 0.0964354 0
-0.0460186 0.102061 0
-0.0583662 0.105713 0
-0.071221 0.107823 0
-0.0845006 0.10845 0
-0.0981201 0.107432 0
-0.11197 0.104496 0
-0.125901 0.09933 0
-0.139719 0.0916347 0
-0.153183 0.0811577 0
-0.165999 0.0677281 0
-0.17783 0.0512858 0
-0.188296 0.0319096 0
-0.196983 0.00984249 0
-0.203455 -0.0144879 0
-0.207292 -0.0406033 0
-0.208042 -0.067794 0
-0.205164 -0.0949971 0
-0.19807 -0.120815 0
-0.186185 -0.143463 0
-0.169071 -0.160722 0
-0.146634 -0.169982 0
-0.119437 -0.168501 0
-0.089048 -0.154044 0
-0.0583039 -0.126062 0
-0.0311609 -0.0873541 0
-0.0116694 -0.0452439 0
-0.00214954 -0.0099917 0
-0.00132154 0.0252829 0
-0.00576929 0.0602373 0
-0.0132008 0.0832669 0
-0.0225661 0.0980948 0
-0.0331807 0.107676 0
-0.044638 0.114 0
-0.0567145 0.118198 0
-0.0692885 0.120767 0
-0.0822819 0.121779 0
-0.0956218 0.121062 0
-0.109218 0.118311 0
-0.122947 0.113175 0
-0.136649 0.10531 0
-0.150121 0.0944172 0
-0.163115 0.0802793 0
-0.175343 0.0627932 0
-0.186474 0.041999 0
-0.19614 0.018106 0
-0.203933 -0.00848585 0
-0.209458 -0.037244 0
-0.212277 -0.0675841 0
-0.211823 -0.0985397 0
-0.207397 -0.128792 0
-0.198206 -0.156562 0
-0.183466 -0.179477 0
-0.162635 -0.194495 0
-0.135773 -0.198047 0
-0.104036 -0.186623 0
-0.0701731 -0.15809 0
-0.038681 -0.113961 0
-0.0149353 -0.0618742 0
-0.00283768 -0.0149789 0
-0.00120276 0.0278072 0
-0.00531645 0.0662745 0
-0.0122891 0.0916339 0
-0.0211592 0.107963 0
-0.0312594 0.118523 0
-0.0421722 0.125523 0
-0.0536585 0.130237 0
-0.0655876 0.133231 0
-0.0778826 0.134604 0
-0.0904824 0.134177 0
-0.103318 0.131627 0
-0.1163 0.126571 0
-0.129309 0.118626 0
-0.142194 0.107458 0
-0.154771 0.0928099 0
-0.166822 0.0745408 0
-0.178092 0.0526529 0
-0.188292 0.0273174 0
-0.197092 -0.00110399 0
-0.204137 -0.0320556 0
-0.20903 -0.065061 0
-0.21123 -0.0993174 0
-0.209981 -0.133689 0
-0.204298 -0.166539 0
-0.193054 -0.195485 0
-0.175196 -0.217177 0
-0.150156 -0.227267 0
-0.11846 -0.220835 0
-0.0824818 -0.19372 0
-0.0470078 -0.145298 0
-0.0187566 -0.0825346 0
-0.00367808 -0.0214947 0
-0.00105179 0.0300618 0
-0.00473061 0.0718124 0
-0.0110852 0.0994232 0
-0.0192612 0.11722 0
-0.0286132 0.128718 0
-0.0387096 0.136337 0
-0.0492908 0.141491 0
-0.0602125 0.144828 0
-0.0713964 0.146485 0
-0.0827932 0.146292 0
-0.0943589 0.143914 0
-0.10604 0.138947 0
-0.117768 0.130986 0
-0.129452 0.119668 0
-0.140984 0.104709 0
-0.152233 0.0859409 0
-0.163046 0.0633356 0
-0.173239 0.0370281 0
-0.182589 0.00733555 0
-0.190819 -0.0252199 0
-0.197608 -0.060215 0
-0.2025 -0.0970711 0
-0.204741 -0.134944 0
-0.203216 -0.172491 0
-0.196483 -0.207509 0
-0.182962 -0.236532 0
-0.161355 -0.25456 0
-0.131355 -0.255238 0
-0.0946404 -0.232011 0
-0.0559233 -0.181198 0
-0.0231261 -0.107682 0
-0.00468938 -0.0298622 0
-0.000880457 0.031994 0
-0.00405478 0.0767333 0
-0.00967005 0.106472 0
-0.016988 0.125665 0
-0.0253872 0.138024 0
-0.0344202 0.14616 0
-0.043804 0.151633 0
-0.053379 0.155183 0
-0.0630651 0.157 0
-0.0728259 0.156935 0
-0.082645 0.154655 0
-0.09251 0.149752 0
-0.102406 0.141805 0
-0.112309 0.130438 0
-0.122193 0.115354 0
-0.132021 0.0963726 0
-0.141753 0.0734483 0
-0.151335 0.0466905 0
-0.160679 0.0163674 0
-0.169615 -0.0170852 0
-0.177944 -0.0532316 0
-0.185343 -0.0917642 0
-0.19113 -0.132224 0
-0.194147 -0.17372 0
-0.192713 -0.214447 0
-0.184753 -0.251074 0
-0.168192 -0.278186 0
-0.141711 -0.288092 0
-0.105963 -0.271618 0
-0.0651333 -0.221137 0
-0.0280169 -0.137657 0
-0.00589484 -0.0404464 0
-0.000704699 0.0335792 0
-0.00334826 0.080966 0
-0.00815808 0.112664 0
-0.0145052 0.133138 0
-0.0217908 0.146236 0
-0.0295521 0.154743 0
-0.0374841 0.160366 0
-0.0454139 0.163955 0
-0.0532622 0.165763 0
-0.0610094 0.16568 0
-0.06867 0.16339 0
-0.0762764 0.158489 0
-0.0838701 0.150557 0
-0.0914978 0.139217 0
-0.0992118 0.124172 0
-0.107071 0.105242 0
-0.115144 0.0823838 0
-0.123505 0.0556975 0
-0.132217 0.0254165 0
-0.141299 -0.00811624 0
-0.150686 -0.0444844 0
-0.160184 -0.0836151 0
-0.169274 -0.125496 0
-0.176868 -0.169837 0
-0.18117 -0.215462 0
-0.179708 -0.259482 0
-0.169646 -0.296402 0
-0.148544 -0.31746 0
-0.115713 -0.310829 0
-0.0742847 -0.264185 0
-0.0333917 -0.172619 0
-0.00732862 -0.0536698 0
-0.0005446 0.0348285 0
-0.00268708 0.0845028 0
-0.00669725 0.117948 0
-0.0120277 0.139532 0
-0.0180947 0.153194 0
-0.0244241 0.161875 0
-0.0306961 0.167438 0
-0.0367323 0.170849 0
-0.0424621 0.172447 0
-0.0478889 0.17217 0
-0.0530633 0.169735 0
-0.0580664 0.164753 0
-0.0629992 0.156819 0
-0.0679777 0.145562 0
-0.0731329 0.130697 0
-0.0786119 0.112056 0
-0.0845825 0.0896134 0
-0.0912356 0.0634817 0
-0.0987795 0.0338887 0
-0.107409 0.00112195 0
-0.117226 -0.0345182 0
-0.128206 -0.0731039 0
-0.140043 -0.115079 0
-0.151842 -0.160861 0
-0.161855 -0.210121 0
-0.167383 -0.260756 0
-0.164951 -0.307622 0
-0.150967 -0.341326 0
-0.123142 -0.347618 0
-0.0829822 -0.308984 0
-0.0392136 -0.212481 0
-0.0090428 -0.0700413 0
-0.00042497 0.035798 0
-0.00216594 0.0874167 0
-0.00547198 0.12235 0
-0.00982014 0.144808 0
-0.0146269 0.158792 0
-0.0194143 0.167395 0
-0.0238641 0.17264 0
-0.0278087 0.175627 0
-0.0311997 0.176789 0
-0.0340735 0.176128 0
-0.0365241 0.173402 0
-0.0386852 0.168251 0
-0.0407192 0.160288 0
-0.0428118 0.149164 0
-0.0451697 0.134608 0
-0.0480216 0.116476 0
-0.0516211 0.0947641 0
-0.0562523 0.0696154 0
-0.0622324 0.041279 0
-0.0698945 0.0100231 0
-0.0795107 -0.0239857 0
-0.0912383 -0.0609294 0
-0.10501 -0.101644 0
-0.120224 -0.147284 0
-0.135386 -0.198525 0
-0.147821 -0.254388 0
-0.153646 -0.310597 0
-0.148225 -0.357757 0
-0.127502 -0.379736 0
-0.0907869 -0.35374 0
-0.0454463 -0.256834 0
-0.0111106 -0.0901947 0
-0.000377493 0.0366005 0
-0.00190448 0.0898822 0
-0.00471047 0.125997 0
-0.00820105 0.149001 0
-0.0117688 0.162974 0
-0.0149475 0.171179 0
-0.0174486 0.175807 0
-0.019143 0.1781 0
-0.0200255 0.178591 0
-0.02018 0.177355 0
-0.0197519 0.174197 0
-0.0189312 0.168795 0
-0.0179432 0.16079 0
-0.0170423 0.149854 0
-0.0165086 0.135742 0
-0.0166464 0.118331 0
-0.0177834 0.097645 0
-0.0202725 0.0738549 0
-0.0244949 0.0472419 0
-0.0308583 0.0180857 0
-0.0397634 -0.0135269 0
-0.0515174 -0.0479067 0
-0.0662615 -0.0861513 0
-0.0837545 -0.130069 0
-0.102954 -0.181378 0
-0.121539 -0.240514 0
-0.135581 -0.304604 0
-0.139683 -0.365069 0
-0.128018 -0.404813 0
-0.0971799 -0.396216 0
-0.0520299 -0.304849 0
-0.0136203 -0.114926 0
-0.000446028 0.037424 0
-0.00206155 0.0922012 0
-0.00470107 0.129123 0
-0.00755189 0.152215 0
-0.0099529 0.165728 0
-0.0114795 0.17313 0
-0.0119191 0.176796 0
-0.0112227 0.178108 0
-0.00945727 0.177699 0
-0.0067721 0.175716 0
-0.00337342 0.17201 0
0.000488653 0.1663 0
0.00452421 0.158261 0
0.00841069 0.147595 0
0.0117983 0.13408 0
0.0143141 0.117616 0
0.0155677 0.0982443 0
0.0151576 0.0761548 0
0.0126787 0.0516432 0
0.00772131 0.0250051 0
-0.000143566 -0.00367631 0
-0.0113066 -0.0348403 0
-0.0260555 -0.0697247 0
-0.0444815 -0.110577 0
-0.0661467 -0.160006 0
-0.0894293 -0.220018 0
-0.110855 -0.289631 0
-0.124766 -0.362028 0
-0.123805 -0.42048 0
-0.101469 -0.433724 0
-0.0588131 -0.355147 0
-0.0166519 -0.145198 0
-0.000697924 0.038568 0
-0.00286345 0.0948383 0
-0.00582096 0.132083 0
-0.0083306 0.154616 0
-0.00965611 0.167054 0
-0.00947305 0.173147 0
-0.00771623 0.175462 0
-0.00447305 0.175503 0
8.28615e-05 0.173983 0
0.00572029 0.17111 0
0.0121567 0.166781 0
0.0190705 0.160753 0
0.0261093 0.152734 0
0.0328903 0.142455 0
0.0390034 0.129719 0
0.0440179 0.114446 0
0.0474931 0.0966854 0
0.0489935 0.0766234 0
0.0481066 0.0545404 0
0.0444581 0.0307138 0
0.0377163 0.0052217 0
0.0275676 -0.0224264 0
0.0136907 -0.0535127 0
-0.00429688 -0.0903749 0
-0.026605 -0.136235 0
-0.0525539 -0.194559 0
-0.0796854 -0.266534 0
-0.102833 -0.348066 0
-0.11371 -0.424524 0
-0.102619 -0.463107 0
-0.0654205 -0.405619 0
-0.0202288 -0.182079 0
-0.00124606 0.040512 0
-0.00465294 0.0984667 0
-0.00857581 0.135335 0
-0.0110777 0.156376 0
-0.011371 0.166913 0
-0.00934276 0.171077 0
-0.00517848 0.171611 0
0.000830061 0.170102 0
0.00835864 0.1673 0
0.0170635 0.163451 0
0.0265812 0.158486 0
0.0365296 0.152186 0
0.0465042 0.144288 0
0.0560752 0.134549 0
0.0647896 0.122797 0
0.0721804 0.108963 0
0.0777808 0.093093 0
0.0811457 0.0753504 0
0.0818766 0.0559694 0
0.079644 0.035166 0
0.0741895 0.0129657 0
0.0652706 -0.0111028 0
0.0526023 -0.0382912 0
0.0358346 -0.0708412 0
0.0145198 -0.112146 0
-0.011764 -0.166415 0
-0.0421998 -0.23711 0
-0.0730205 -0.323522 0
-0.0961004 -0.415111 0
-0.0989785 -0.480733 0
-0.0710251 -0.453145 0
-0.0242311 -0.226539 0
-0.0022881 0.0440461 0
-0.00796089 0.104012 0
-0.0136271 0.139378 0
-0.0163685 0.157575 0
-0.0154938 0.165132 0
-0.0113023 0.166639 0
-0.0043714 0.164954 0
0.00472298 0.161656 0
0.0154648 0.157475 0
0.0273878 0.152647 0
0.0400574 0.147102 0
0.0530462 0.140633 0
0.0659171 0.132996 0
0.0782165 0.123971 0
0.0894751 0.113402 0
0.0992179 0.101224 0
0.106981 0.087468 0
0.112336 0.0722554 0
0.114916 0.055754 0
0.114434 0.0380961 0
0.110685 0.0192386 0
0.103492 -0.00126347 0
0.0925936 -0.024564 0
0.077605 -0.052812 0
0.0579689 -0.0892239 0
0.032945 -0.138029 0
0.00189072 -0.204006 0
-0.0340465 -0.289868 0
-0.0686125 -0.391119 0
-0.0879012 -0.482559 0
-0.0739785 -0.493196 0
-0.0282454 -0.279015 0
-0.00416623 0.0505005 0
-0.0135696 0.112634 0
-0.0217063 0.144559 0
-0.0245596 0.157989 0
-0.0219489 0.161233 0
-0.0149127 0.15931 0
-0.00458916 0.155028 0
0.00809287 0.149805 0
0.0224144 0.144262 0
0.0378041 0.138548 0
0.0537811 0.132555 0
0.0699006 0.126071 0
0.0857232 0.118863 0
0.100802 0.110725 0
0.114685 0.101508 0
0.126918 0.0911419 0
0.137072 0.0796331 0
0.144755 0.0670515 0
0.149643 0.0534909 0
0.151486 0.0389979 0
0.15011 0.0234621 0
0.145364 0.00645156 0
0.137019 -0.0130356 0
0.124637 -0.0369695 0
0.107498 -0.0682914 0
0.0845219 -0.110962 0
0.0543346 -0.169832 0
0.016037 -0.249807 0
-0.0279213 -0.352655 0
-0.0652518 -0.464403 0
-0.0712204 -0.519305 0
-0.0312994 -0.33856 0
-0.00741876 0.0620854 0
-0.0224001 0.125434 0
-0.0330617 0.150558 0
-0.0348602 0.156643 0
-0.0290176 0.154126 0
-0.0177609 0.148124 0
-0.00292962 0.14106 0
0.0141856 0.133977 0
0.032708 0.127247 0
0.0520202 0.120861 0
0.0716453 0.114639 0
0.0911651 0.108348 0
0.110178 0.101752 0
0.12828 0.0946537 0
0.145069 0.0869078 0
0.160147 0.078431 0
0.173138 0.0691998 0
0.183706 0.059233 0
0.191571 0.0485572 0
0.196511 0.0371482 0
0.198353 0.024846 0
0.196934 0.0112323 0
0.192015 -0.00455199 0
0.183104 -0.0241593 0
0.16929 -0.0501493 0
0.149125 -0.0859628 0
0.120544 -0.136064 0
0.0812447 -0.205979 0
0.0304231 -0.301704 0
-0.0248468 -0.422754 0
-0.0573126 -0.52252 0
-0.0313596 -0.401219 0
-0.0126257 0.0821299 0
-0.0345043 0.142249 0
-0.0452337 0.155133 0
-0.0422934 0.150925 0
-0.0298421 0.14155 0
-0.0117086 0.13131 0
0.00960956 0.121724 0
0.0326075 0.113199 0
0.0563991 0.105711 0
0.0804405 0.0990436 0
0.104343 0.0929295 0
0.127776 0.0871042 0
0.150427 0.0813321 0
0.171978 0.0754195 0
0.192109 0.0692222 0
0.210502 0.0626459 0
0.226856 0.0556406 0
0.240895 0.0481843 0
0.252382 0.0402545 0
0.26111 0.0317832 0
0.266887 0.0225911 0
0.269498 0.0122958 0
0.268626 0.000175427 0
0.263699 -0.0150489 0
0.253634 -0.0353808 0
0.236599 -0.0635313 0
0.209896 -0.103211 0
0.170053 -0.159688 0
0.113766 -0.240886 0
0.0420594 -0.356596 0