# vtk DataFile Version 2.0
Lid-driven cavity
ASCII
DATASET STRUCTURED_POINTS
DIMENSIONS 32 32 1
ORIGIN 0.015625 0.015625 0
SPACING 0.03125 0.03125 1
POINT_DATA 1024
SCALARS pressure double 1
LOOKUP_TABLE default
55.6081
55.373
54.9473
54.4632
54.002
53.6056
53.2954
53.0869
52.9975
53.0489
53.2653
53.6696
54.2787
55.0985
56.1186
57.3087
58.6167
59.9709
61.277
62.4281
63.318
63.8576
63.9911
63.7091
63.0544
62.1191
61.03
59.9318
58.968
58.2616
57.8994
57.8893
55.8431
55.5974
55.2404
54.8491
54.4744
54.1461
53.8827
53.6998
53.615
53.6492
53.825
54.1641
54.6829
55.3883
56.2729
57.3113
58.4578
59.6505
60.8038
61.8208
62.6049
63.0756
63.184
62.9245
62.3402
61.5176
60.573
59.6302
58.8079
58.2019
57.8803
57.879
56.285
55.9331
55.5627
55.2044
54.8759
54.5871
54.346
54.1636
54.0557
54.0434
54.1505
54.4012
54.8158
55.4066
56.1725
57.0954
58.1363
59.2384
60.3194
61.2836
62.0338
62.4877
62.5938
62.345
61.7834
60.9955
60.0961
59.2062
58.4308
57.8541
57.5355
57.5218
56.7854
56.2803
55.8503
55.4835
55.1651
54.8826
54.6312
54.4151
54.2482
54.1526
54.1558
54.2877
54.5762
55.0423
55.6945
56.5238
57.4991
58.5645
59.6383
60.621
61.4079
61.9064
62.0544
61.8359
61.2883
60.498
59.5834
58.67
57.8662
57.2511
56.8815
56.8022
57.2027
56.5267
56.0138
55.6105
55.2696
54.9574
54.656
54.3635
54.0924
53.8673
53.7217
53.6939
53.8223
54.1399
54.6674
55.4076
56.3391
57.4064
58.5286
59.5998
60.5031
61.1284
61.3935
61.2636
60.7629
59.9729
59.0164
58.0295
57.1333
56.4163
55.9383
55.7437
57.399
56.5504
55.945
55.485
55.0917
54.7112
54.3143
53.8943
53.4641
53.0525
52.7006
52.4576
52.3753
52.5012
52.8715
53.5037
54.3902
55.4808
56.698
57.9303
59.045
59.9073
60.4043
60.4685
60.0968
59.355
58.3653
57.2786
56.2393
55.36
54.7165
54.3625
57.2363
56.2228
55.5221
54.9893
54.514
54.0239
53.4806
52.8743
52.2197
51.5512
50.9194
50.3864
50.0196
49.8845
50.0363
50.5114
51.3207
52.4318
53.7771
55.2428
56.6795
57.9212
58.8112
59.232
59.1325
58.5437
57.5756
56.3928
55.1742
54.075
53.2073
52.6509
56.5774
55.4128
54.6171
53.9959
53.4078
52.7636
52.0172
51.1573
50.201
49.1896
48.1844
47.2619
46.5078
46.009
45.8445
46.0755
46.7367
47.8297
49.312
51.074
52.9521
54.7443
56.2377
57.2433
57.6344
57.3783
56.5502
55.3195
53.9088
52.5391
51.3877
50.5768
55.2905
53.9935
53.1037
52.3774
51.643
50.7959
49.7834
48.593
47.2449
45.7871
44.292
42.8521
41.574
40.5702
39.9493
39.8043
40.201
41.1893
42.7783
44.8747
47.3073
49.8383
52.188
54.0739
55.2607
55.6118
55.13
53.9666
52.3894
50.7114
49.2108
48.0847
53.2573
51.8505
50.8674
50.0168
49.0993
47.996
46.6481
45.0415
43.1983
41.1727
39.0484
36.9344
34.9609
33.2708
32.009
31.3089
31.2762
32.0142
33.6249
36.0485
39.1197
42.5714
46.0537
49.1723
51.5477
52.89
53.0742
52.1896
50.534
48.535
46.6198
45.1043
50.3826
48.8922
47.8156
46.8194
45.6792
44.2631
42.5055
40.3896
37.938
35.2095
32.2976
29.3289
26.4591
23.8661
21.7386
20.2607
19.5926
19.8714
21.3503
24.0275
27.7639
32.2788
37.1588
41.8894
45.9171
48.7445
50.0467
49.779
48.2263
45.9391
43.5497
41.5562
46.6044
45.0592
43.889
42.7249
41.3215
39.535
37.2925
34.5726
31.3959
27.8233
23.9568
19.9399
15.9556
12.2206
8.97407
6.46037
4.90566
4.4907
5.60657
8.38145
12.7243
18.3655
24.8489
31.5478
37.7198
42.6117
45.6161
46.4536
45.312
42.8421
39.9363
37.3632
41.9021
40.3333
39.0701
37.7174
36.0131
33.8029
31.006
27.5939
23.5825
19.0323
14.0512
8.7984
3.48462
-1.63202
-6.25686
-10.0779
-12.7938
-14.1504
-13.689
-11.0553
-6.26852
0.445001
8.62236
17.5555
26.3229
33.8879
39.2819
41.8661
41.5992
39.1574
35.7283
32.4657
36.3027
34.7428
33.3901
31.8332
29.7984
27.1228
23.7165
19.5423
14.6084
8.97164
2.74336
-3.90363
-10.7318
-17.4409
-23.6783
-29.0591
-33.198
-35.7527
-36.2525
-34.0628
-29.1
-21.5099
-11.713
-0.444212
11.2401
22.0277
30.5342
35.6315
36.8697
34.804
30.9041
26.8394
29.8819
28.3639
26.9299
25.163
22.7832
19.6203
15.5755
10.6007
4.69411
-2.09426
-9.65245
-17.7967
-26.2649
-34.7162
-42.7405
-49.879
-55.6574
-59.6314
-61.3647
-59.9531
-55.1675
-47.0394
-35.8922
-22.4134
-7.71337
6.67785
18.9529
27.3853
30.9082
29.7267
25.4949
20.5212
22.7605
21.3165
19.8168
17.849
15.1318
11.4894
6.81369
1.04445
-5.83244
-13.7761
-22.6769
-32.3432
-42.4913
-52.7437
-62.6365
-71.6409
-79.198
-84.7663
-87.8788
-87.5663
-83.3527
-75.137
-63.0979
-47.7916
-30.2714
-12.1727
4.33539
16.8747
23.5555
23.9287
19.6173
13.6433
15.0955
13.755
12.2144
10.0748
7.05728
2.98144
-2.27077
-8.77289
-16.5531
-25.582
-35.7546
-46.8742
-58.6395
-70.6404
-82.366
-93.2257
-102.586
-109.82
-114.372
-115.379
-112.103
-104.296
-91.961
-75.4456
-55.6187
-34.062
-13.1661
4.0739
14.7881
17.523
13.5178
6.47884
7.06578
5.85373
4.30796
2.05012
-1.19447
-5.61189
-11.3319
-18.4432
-26.99
-36.9559
-48.2427
-60.6511
-73.8651
-87.4477
-100.848
-113.423
-124.478
-133.316
-139.298
-141.693
-139.616
-132.676
-120.686
-103.735
-82.3873
-57.9866
-32.9328
-10.6947
4.81849
10.8053
7.63468
-0.495969
-1.14488
-2.21095
-3.71454
-6.00829
-9.36473
-13.9803
-20.0011
-27.5346
-36.6433
-47.3254
-59.4909
-72.9392
-87.3429
-102.242
-117.052
-131.091
-143.616
-153.88
-161.183
-164.886
-164.112
-158.371
-147.298
-130.707
-108.776
-82.433
-53.8303
-26.6597
-5.79255
4.35016
2.68365
-6.51152
-9.36739
-10.2806
-11.6823
-13.8969
-17.2027
-21.8176
-27.9136
-35.6234
-45.0311
-56.1512
-68.902
-83.0825
-98.3551
-114.241
-130.129
-145.304
-158.993
-170.415
-178.846
-183.655
-184.126
-179.727
-169.962
-154.395
-132.791
-105.528
-74.2541
-42.5534
-16.0321
-0.868508
-0.219871
-10.3704
-17.4674
-18.2352
-19.4616
-21.444
-24.4836
-28.8412
-34.7314
-42.3222
-51.7247
-62.97
-75.9838
-90.5631
-106.361
-122.882
-139.492
-155.454
-169.97
-182.245
-191.543
-197.235
-198.755
-195.625
-187.304
-173.154
-152.56
-125.292
-92.2788
-56.6405
-24.3606
-3.33991
0.610275
-10.2453
-25.3655
-26.0139
-26.974
-28.5242
-31.0215
-34.8055
-40.1596
-47.302
-56.3757
-67.4277
-80.386
-95.0418
-111.039
-127.865
-144.871
-161.299
-176.336
-189.176
-199.082
-205.435
-207.748
-205.644
-198.623
-185.93
-166.64
-139.932
-105.889
-66.8337
-28.6893
-0.873444
7.65896
-3.38658
-33.0606
-33.6373
-34.2117
-35.0669
-36.6738
-39.5075
-43.9564
-50.305
-58.734
-69.2998
-81.9318
-96.4122
-112.363
-129.252
-146.408
-163.057
-178.373
-191.544
-201.835
-208.638
-211.482
-210.059
-203.951
-192.39
-174.218
-148.098
-113.23
-70.8741
-26.4263
9.52352
24.4883
14.274
-40.6633
-41.2378
-41.2533
-41.0578
-41.3371
-42.7852
-45.9386
-51.1765
-58.7058
-68.5836
-80.7197
-94.869
-110.626
-127.431
-144.59
-161.311
-176.758
-190.111
-200.635
-207.722
-210.902
-209.809
-204.001
-192.846
-175.131
-148.994
-112.796
-66.5252
-14.5875
31.712
56.0364
48.6205
-48.4591
-49.1103
-48.2831
-46.5353
-44.9346
-44.5093
-45.9901
-49.8323
-56.2634
-65.3196
-76.8704
-90.6257
-106.138
-122.814
-139.931
-156.679
-172.211
-185.697
-196.391
-203.671
-207.045
-206.088
-200.174
-188.497
-169.789
-142.291
-103.459
-51.6986
10.0543
70.3909
108.878
107.93
-57.0505
-57.8131
-55.6272
-51.5839
-47.3954
-44.5487
-43.999
-46.2331
-51.4636
-59.6689
-70.6486
-84.0463
-99.3589
-115.949
-133.065
-149.877
-165.522
-179.159
-190.019
-197.444
-200.886
-199.872
-193.53
-180.723
-159.865
-128.659
-84.3667
-24.4476
50.8378
130.93
191.356
203.506
-67.6937
-68.3789
-63.8206
-56.331
-48.6456
-42.7952
-39.9204
-40.4465
-44.4961
-51.9361
-62.4602
-75.6233
-90.8543
-107.467
-124.677
-141.634
-157.46
-171.295
-182.338
-189.873
-193.265
-191.92
-184.864
-170.312
-146.157
-109.361
-56.1176
17.1481
111.142
219.005
313.441
350.349
-83.1282
-82.743
-73.7004
-60.913
-48.5705
-39.1577
-33.7826
-32.6496
-35.6745
-42.5441
-52.8097
-65.92
-81.2282
-97.9971
-115.411
-132.6
-148.67
-162.739
-173.965
-181.558
-184.76
-182.789
-174.655
-157.698
-129.055
-84.6982
-19.3835
72.4215
193.922
339.904
486.011
567.89
-109.656
-104.445
-86.3236
-65.2187
-46.8127
-33.4191
-25.577
-23.0255
-25.3273
-31.9184
-42.1798
-55.4459
-70.9953
-88.044
-105.749
-123.225
-139.564
-153.862
-165.231
-172.796
-175.658
-172.807
-162.989
-142.967
-108.676
-54.8971
25.4047
140.451
297.576
497.535
718.767
880.696
-162.33
-138.705
-101.553
-67.6416
-41.9609
-24.6141
-14.7396
-11.3386
-13.4453
-20.1922
-30.7841
-44.452
-60.4144
-77.8548
-95.915
-113.702
-130.301
-144.788
-156.233
-163.671
-166.043
-162.076
-150.094
-126.318
-85.5317
-21.2263
75.6418
216.751
415.928
686.188
1021.97
1317.91
-275.776
-184.906
-111.058
-60.6225
-28.2993
-8.88405
1.09615
3.84301
0.831448
-6.854
-18.3246
-32.7727
-49.4048
-67.4066
-85.9297
-104.092
-120.986
-135.678
-147.202
-154.512
-156.395
-151.302
-137.089
-109.388
-62.4653
11.3218
122.825
287.438
527.955
881.118
1401.09
2026.49
-557.751
-199.233
-72.4906
-19.2932
7.02191
20.347
25.4969
24.5715
18.7586
8.90587
-4.26589
-20.0661
-37.7856
-56.6738
-75.9318
-94.7152
-112.141
-127.286
-139.171
-146.706
-148.581
-143.066
-127.6
-97.8553
-47.9737
30.1793
148.296
324.034
587.546
1003.09
1744.5
3266.5
VECTORS velocity double
8.33436e-05 -8.33437e-05 0
0.000170297 -3.60979e-06 0
3.65382e-05 0.000137369 0
-0.000367395 0.000266564 0
-0.000999944 0.000365985 0
-0.00180466 0.000438731 0
-0.00273573 0.000492336 0
-0.00376011 0.000532048 0
-0.00485133 0.000559168 0
-0.00598212 0.000571629 0
-0.00711905 0.000565301 0
-0.00821966 0.000535301 0
-0.00923208 0.000477125 0
-0.0100968 0.000387596 0
-0.0107501 0.000265702 0
-0.0111291 0.000113312 0
-0.0111781 -6.43386e-05 0
-0.0108551 -0.000258662 0
-0.0101409 -0.000455559 0
-0.00904815 -0.000637162 0
-0.00762729 -0.000783696 0
-0.00596748 -0.000876109 0
-0.00419204 -0.000899331 0
-0.00244705 -0.000845664 0
-0.000883889 -0.000717496 0
0.000362106 -0.0005285 0
0.00119351 -0.0003029 0
0.00156767 -7.12684e-05 0
0.00150776 0.000131181 0
0.00111109 0.000265486 0
0.000561057 0.000284552 0
0.000138253 0.000138253 0
6.82673e-08 -0.000166756 0
-0.000248228 0.000241145 0
-0.00105565 0.000833797 0
-0.00245852 0.00137694 0
-0.00437587 0.00180551 0
-0.00669745 0.0021255 0
-0.00932093 0.00236012 0
-0.012158 0.00252573 0
-0.0151264 0.00262512 0
-0.0181392 0.00264922 0
-0.0210964 0.0025819 0
-0.0238823 0.00240517 0
-0.0263663 0.00210365 0
-0.0284087 0.00166826 0
-0.0298697 0.00109932 0
-0.03062 0.000408944 0
-0.0305536 -0.000377371 0
-0.0296025 -0.00121972 0
-0.0277508 -0.00206046 0
-0.0250467 -0.002829 0
-0.0216109 -0.00344851 0
-0.0176368 -0.00384526 0
-0.0133822 -0.00396018 0
-0.00915081 -0.00376124 0
-0.00526167 -0.00325422 0
-0.00201062 -0.00248883 0
0.000373289 -0.00155788 0
0.00177051 -0.000587675 0
0.00220239 0.000275618 0
0.0018472 0.000872904 0
0.00104366 0.00103071 0
0.000291026 0.000567531 0
-0.000181201 1.43772e-05 0
-0.00100617 0.00113328 0
-0.00274615 0.00248906 0
-0.00532653 0.00370493 0
-0.00860341 0.00467174 0
-0.0124218 0.00539927 0
-0.0166387 0.00592667 0
-0.0211223 0.00627985 0
-0.0257421 0.00645926 0
-0.030358 0.00644374 0
-0.0348137 0.00620038 0
-0.0389363 0.00569509 0
-0.0425403 0.00490175 0
-0.0454372 0.00380953 0
-0.0474467 0.00242848 0
-0.0484103 0.000793643 0
-0.0482063 -0.00103243 0
-0.0467645 -0.00295758 0
-0.0440793 -0.00485947 0
-0.0402216 -0.00659176 0
-0.0353467 -0.00799641 0
-0.0296973 -0.00892087 0
-0.0235967 -0.00923975 0
-0.0174308 -0.00887901 0
-0.0116172 -0.0078392 0
-0.00656014 -0.00621195 0
-0.00259502 -0.00418379 0
6.97958e-05 -0.0020238 0
0.00140486 -5.52119e-05 0
0.00159167 0.00137211 0
0.00102441 0.00190231 0
0.000307209 0.00116576 0
-0.000400748 0.000596326 0
-0.00191517 0.00289073 0
-0.00473281 0.00528923 0
-0.0086057 0.00735803 0
-0.0132972 0.00898706 0
-0.0186016 0.0102067 0
-0.0243401 0.0110746 0
-0.0303469 0.0116224 0
-0.0364541 0.0118437 0
-0.0424806 0.0117017 0
-0.0482288 0.0111463 0
-0.0534867 0.0101296 0
-0.0580355 0.00862013 0
-0.0616603 0.00661285 0
-0.0641623 0.00413661 0
-0.0653723 0.00125909 0
-0.0651637 -0.00191049 0
-0.0634639 -0.00522108 0
-0.0602647 -0.00848036 0
-0.0556339 -0.0114594 0
-0.0497281 -0.0139094 0
-0.0427992 -0.0155861 0
-0.0351941 -0.0162803 0
-0.0273426 -0.0158558 0
-0.0197309 -0.0142877 0
-0.0128557 -0.0116956 0
-0.00716121 -0.00835975 0
-0.00296433 -0.00470953 0
-0.000384834 -0.00128404 0
0.000704842 0.00132446 0
0.000698706 0.00252336 0
0.000243819 0.00171679 0
-0.00063512 0.0016322 0
-0.00288574 0.0056199 0
-0.00684307 0.00933503 0
-0.012054 0.012396 0
-0.018171 0.0147575 0
-0.0249314 0.016501 0
-0.0321241 0.0177114 0
-0.0395573 0.0184257 0
-0.047037 0.0186272 0
-0.0543553 0.018263 0
-0.0612891 0.017267 0
-0.0676044 0.0155821 0
-0.0730652 0.0131772 0
-0.0774438 0.0100592 0
-0.0805327 0.0062811 0
-0.0821549 0.00194682 0
-0.082175 -0.00278675 0
-0.0805051 -0.00771446 0
-0.0771128 -0.0125785 0
-0.0720371 -0.0170677 0
-0.0654062 -0.0208378 0
-0.0574518 -0.0235409 0
-0.0485171 -0.0248653 0
-0.0390542 -0.0245853 0
-0.0296052 -0.022619 0
-0.0207606 -0.0190841 0
-0.0130907 -0.0143358 0
-0.00705413 -0.00896696 0
-0.00290175 -0.00375849 0
-0.000601618 0.000409103 0
0.000195852 0.00264738 0
0.000141451 0.00210206 0
-0.000872271 0.00313959 0
-0.00386468 0.00935553 0
-0.00896134 0.0146534 0
-0.0154942 0.0188215 0
-0.0229997 0.0219546 0
-0.0311586 0.0242234 0
-0.0397315 0.0257546 0
-0.0485089 0.0265931 0
-0.0572819 0.0267124 0
-0.0658294 0.0260436 0
-0.0739166 0.0245075 0
-0.0813006 0.0220409 0
-0.0877379 0.0186165 0
-0.0929943 0.0142549 0
-0.0968533 0.0090332 0
-0.0991248 0.00308841 0
-0.0996522 -0.00338085 0
-0.0983167 -0.0101257 0
-0.095043 -0.0168332 0
-0.0898188 -0.023113 0
-0.0827209 -0.0285215 0
-0.0739371 -0.0325954 0
-0.0637846 -0.034898 0
-0.0527191 -0.035081 0
-0.0413282 -0.0329631 0
-0.0302989 -0.0286139 0
-0.0203483 -0.0224264 0
-0.0121176 -0.0151436 0
-0.00604162 -0.00781029 0
-0.00223319 -0.00164766 0
-0.00042424 0.00209772 0
1.91847e-05 0.0022627 0
-0.00110239 0.00511425 0
-0.00480917 0.0140801 0
-0.010994 0.0212103 0
-0.0187798 0.0265833 0
-0.0275931 0.0305115 0
-0.0370632 0.0332956 0
-0.0469288 0.0351209 0
-0.0569711 0.0360464 0
-0.0669765 0.0360376 0
-0.0767217 0.0350112 0
-0.0859712 0.0328766 0
-0.094481 0.0295657 0
-0.102006 0.0250538 0
-0.108304 0.0193724 0
-0.113146 0.0126167 0
-0.116319 0.004949 0
-0.117632 -0.0034005 0
-0.116925 -0.0121489 0
-0.114066 -0.0209422 0
-0.108978 -0.0293162 0
-0.101668 -0.0367262 0
-0.0922601 -0.0425827 0
-0.0810217 -0.0463015 0
-0.0683891 -0.0473756 0
-0.0549759 -0.0454725 0
-0.0415582 -0.0405516 0
-0.0290145 -0.032983 0
-0.0182087 -0.0236234 0
-0.00982308 -0.013792 0
-0.00418376 -0.00511367 0
-0.00115106 0.00072207 0
-0.000119008 0.00216287 0
-0.00131525 0.00753189 0
-0.0056778 0.0197317 0
-0.0128547 0.0289203 0
-0.0217786 0.0355831 0
-0.0317785 0.0403249 0
-0.0424416 0.0436154 0
-0.0534917 0.0457167 0
-0.064708 0.0467092 0
-0.0758811 0.0465533 0
-0.0867938 0.0451534 0
-0.0972167 0.0424068 0
-0.10691 0.0382386 0
-0.115627 0.0326223 0
-0.123117 0.0255927 0
-0.129133 0.0172536 0
-0.133429 0.00778134 0
-0.135775 -0.00257301 0
-0.135961 -0.0134976 0
-0.133798 -0.024615 0
-0.129135 -0.0353954 0
-0.121896 -0.0451952 0
-0.112125 -0.0532933 0
-0.100014 -0.0589406 0
-0.0859469 -0.0614362 0
-0.0705317 -0.0602403 0
-0.0546083 -0.0551249 0
-0.039212 -0.0463498 0
-0.0254605 -0.034814 0
-0.0143523 -0.0220952 0
-0.00651537 -0.0102867 0
-0.00200806 -0.00164489 0
-0.000277075 0.00176679 0
-0.00149987 0.010347 0
-0.00642877 0.0262081 0
-0.0144602 0.0376523 0
-0.0243653 0.0456801 0
-0.0353927 0.0512552 0
-0.0470967 0.0550521 0
-0.0591933 0.0574266 0
-0.0714659 0.0584883 0
-0.0837149 0.0581964 0
-0.0957351 0.0564431 0
-0.107308 0.0531126 0
-0.118199 0.0481178 0
-0.128162 0.041423 0
-0.136937 0.0330568 0
-0.144252 0.0231199 0
-0.149832 0.0117919 0
-0.153404 -0.000665736 0
-0.154708 -0.0139143 0
-0.153501 -0.0275688 0
-0.149558 -0.041048 0
-0.14272 -0.0536191 0
-0.132928 -0.0644326 0
-0.120274 -0.0725666 0
-0.105052 -0.0770994 0
-0.0878151 -0.0772292 0
-0.069421 -0.0724534 0
-0.0510317 -0.0628068 0
-0.0340257 -0.0491145 0
-0.0197801 -0.0331486 0
-0.0093316 -0.0175187 0
-0.00304328 -0.00520855 0
-0.000466759 0.00102296 0
-0.00164518 0.0134921 0
-0.00702125 0.033368 0
-0.0157313 0.0472339 0
-0.0264221 0.0566943 0
-0.0382804 0.0631268 0
-0.0508365 0.0674407 0
-0.0638032 0.0701013 0
-0.0769721 0.0712551 0
-0.0901573 0.0708637 0
-0.103168 0.0688072 0
-0.1158 0.0649531 0
-0.127828 0.0591967 0
-0.139006 0.0514845 0
-0.149064 0.0418281 0
-0.157715 0.030315 0
-0.164655 0.0171172 0
-0.169573 0.00249862 0
-0.172167 -0.0131807 0
-0.172144 -0.0295326 0
-0.169222 -0.0459485 0
-0.163153 -0.061626 0
-0.153768 -0.0756023 0
-0.14103 -0.0867886 0
-0.125101 -0.0940294 0
-0.10642 -0.0962163 0
-0.0857967 -0.092484 0
-0.064457 -0.0825053 0
-0.0440134 -0.0668656 0
-0.0262593 -0.0473972 0
-0.0127562 -0.0272217 0
-0.00431889 -0.0102312 0
-0.000703007 -0.000146809 0
-0.00174093 0.0168782 0
-0.00741806 0.0410351 0
-0.0165967 0.0574555 0
-0.0278426 0.0684092 0
-0.0402993 0.075727 0
-0.0534797 0.080577 0
-0.0670958 0.0835477 0
-0.0809486 0.0848305 0
-0.0948673 0.0843922 0
-0.108678 0.0821011 0
-0.122192 0.077805 0
-0.135196 0.0713758 0
-0.147447 0.0627345 0
-0.158678 0.0518673 0
-0.168591 0.0388392 0
-0.176863 0.0238058 0
-0.183161 0.00702544 0
-0.187143 -0.0111314 0
-0.188488 -0.0302596 0
-0.186871 -0.049761 0
-0.181961 -0.0687918 0
-0.173478 -0.0863052 0
-0.161232 -0.101069 0
-0.145212 -0.1117 0
-0.125679 -0.116758 0
-0.103308 -0.114937 0
-0.0792989 -0.105401 0
-0.055427 -0.0882851 0
-0.0339001 -0.0652585 0
-0.0169075 -0.039856 0
-0.00590135 -0.0170404 0
-0.00100252 -0.00185233 0
-0.0017788 0.0203979 0
-0.00758913 0.0490029 0
-0.0169984 0.0680757 0
-0.0285391 0.0805756 0
-0.0413295 0.0888078 0
-0.0548689 0.0942159 0
-0.0688679 0.0975238 0
-0.0831362 0.0989755 0
-0.0975175 0.0985471 0
-0.111856 0.0960957 0
-0.125979 0.0914476 0
-0.13969 0.0844472 0
-0.15276 0.0749852 0
-0.16493 0.0630168 0
-0.175905 0.0485779 0
-0.185367 0.031801 0
-0.192969 0.0129304 0
-0.198357 -0.00766654 0
-0.20119 -0.0295467 0
-0.201118 -0.0521628 0
-0.197751 -0.0746666 0
-0.190695 -0.0959699 0
-0.179604 -0.114741 0
-0.164251 -0.129401 0
-0.144661 -0.138179 0
-0.121276 -0.139273 0
-0.0951525 -0.131198 0
-0.068116 -0.113396 0
-0.042729 -0.087061 0
-0.0218756 -0.0558995 0
-0.00785325 -0.0260255 0
-0.00138225 -0.00423709 0
-0.00175353 0.0239302 0
-0.00751509 0.0570424 0
-0.016898 0.0788283 0
-0.0284518 0.0929175 0
-0.0412855 0.10209 0
-0.0548867 0.108074 0
-0.0689619 0.11174 0
-0.083326 0.113392 0
-0.0978355 0.113021 0
-0.112352 0.110476 0
-0.126723 0.105562 0
-0.140773 0.0980937 0
-0.154295 0.0879313 0
-0.167051 0.0749966 0
-0.178771 0.059294 0
-0.189154 0.0409285 0
-0.197872 0.0201234 0
-0.204578 -0.0027661 0
-0.208932 -0.0272602 0
-0.210574 -0.0528788 0
-0.209079 -0.0788134 0
-0.203965 -0.103993 0
-0.194725 -0.127049 0
-0.1809 -0.14627 0
-0.162214 -0.159587 0
-0.138783 -0.164681 0
-0.111388 -0.159308 0
-0.0817477 -0.141963 0
-0.0526589 -0.11297 0
-0.0277032 -0.0757993 0
-0.0102273 -0.037624 0
-0.00185876 -0.0074781 0
-0.00166394 0.0273477 0
-0.00719062 0.0649132 0
-0.0162828 0.0894326 0
-0.0275571 0.105141 0
-0.0401288 0.115272 0
-0.0534733 0.121838 0
-0.0672886 0.125866 0
-0.0813904 0.127731 0
-0.095645 0.127446 0
-0.109931 0.124854 0
-0.124119 0.119743 0
-0.138059 0.111902 0
-0.151577 0.101163 0
-0.164471 0.0874156 0
-0.176511 0.0706347 0
-0.187438 0.0508973 0
-0.196967 0.0284016 0
-0.204789 0.00348366 0
-0.210576 -0.023368 0
-0.213986 -0.0517192 0
-0.2146 -0.0808551 0
-0.211874 -0.10979 0
-0.205159 -0.137206 0
-0.193755 -0.161343 0
-0.177043 -0.179911 0
-0.154728 -0.190103 0
-0.127171 -0.188839 0
-0.0958051 -0.173439 0
-0.0634722 -0.142916 0
-0.0343712 -0.09991 0
-0.0130607 -0.0522997 0
-0.00244738 -0.0117842 0
-0.00151355 0.0305252 0
-0.00662694 0.0723758 0
-0.0151708 0.099606 0
-0.0258758 0.116947 0
-0.037878 0.12804 0
-0.0506403 0.135177 0
-0.0638467 0.139549 0
-0.0773083 0.141612 0
-0.0908984 0.14141 0
-0.104512 0.13879 0
-0.118044 0.133527 0
-0.131378 0.125392 0
-0.144379 0.114192 0
-0.156893 0.0997946 0
-0.168747 0.0821496 0
-0.179748 0.0613099 0
-0.189677 0.0374477 0
-0.198288 0.0108702 0
-0.205293 -0.0179621 0
-0.210394 -0.0486134 0
-0.213221 -0.0805217 0
-0.213209 -0.112861 0
-0.209599 -0.14446 0
-0.201463 -0.173629 0
-0.187827 -0.197973 0
-0.16791 -0.214274 0
-0.141524 -0.218611 0
-0.10961 -0.206946 0
-0.0748201 -0.176532 0
-0.0417902 -0.128426 0
-0.0163716 -0.0705132 0
-0.003162 -0.0173936 0
-0.00131095 0.0333497 0
-0.00585319 0.0792069 0
-0.0136132 0.109079 0
-0.0234773 0.128044 0
-0.0346161 0.140084 0
-0.0464799 0.147759 0
-0.0587338 0.152428 0
-0.0711797 0.154641 0
-0.083695 0.154486 0
-0.0961911 0.151823 0
-0.108589 0.146424 0
-0.12081 0.138049 0
-0.132763 0.12649 0
-0.144353 0.111601 0
-0.155475 0.0933187 0
-0.166013 0.0716793 0
-0.175838 0.0468333 0
-0.184797 0.0190537 0
-0.192683 -0.0112545 0
-0.199273 -0.0436298 0
-0.204258 -0.0776934 0
-0.207112 -0.112847 0
-0.207021 -0.148175 0
-0.202873 -0.182197 0
-0.193345 -0.212569 0
-0.177136 -0.235804 0
-0.153393 -0.247209 0
-0.122369 -0.241286 0
-0.0862386 -0.213113 0
-0.0498001 -0.161313 0
-0.0201576 -0.0926868 0
-0.0040158 -0.0245714 0
-0.00106962 0.0357303 0
-0.0049164 0.0852153 0
-0.0116959 0.11761 0
-0.0204817 0.138163 0
-0.0304922 0.151115 0
-0.0411668 0.159267 0
-0.0521483 0.164155 0
-0.0632265 0.166438 0
-0.0742813 0.16626 0
-0.0852408 0.163505 0
-0.0960557 0.157955 0
-0.106685 0.149367 0
-0.117091 0.137531 0
-0.127238 0.122297 0
-0.137092 0.103599 0
-0.146625 0.0814706 0
-0.155809 0.0560521 0
-0.164605 0.0275885 0
-0.172934 -0.00357319 0
-0.180666 -0.0369901 0
-0.187578 -0.0724355 0
-0.193234 -0.109594 0
-0.196842 -0.147912 0
-0.197175 -0.186275 0
-0.192613 -0.222581 0
-0.181334 -0.253281 0
-0.161748 -0.273061 0
-0.133231 -0.274976 0
-0.0971774 -0.251607 0
-0.0581781 -0.198257 0
-0.0243989 -0.119165 0
-0.00502342 -0.0336106 0
-0.000807359 0.0376072 0
-0.00388043 0.0902582 0
-0.00953797 0.125004 0
-0.0170585 0.147075 0
-0.0257197 0.160874 0
-0.0349539 0.169416 0
-0.044382 0.174415 0
-0.0537809 0.176654 0
-0.0630339 0.176351 0
-0.0720885 0.173428 0
-0.0809275 0.167686 0
-0.0895536 0.158892 0
-0.0979815 0.146841 0
-0.106237 0.13139 0
-0.114361 0.112484 0
-0.12241 0.0901673 0
-0.130457 0.0645865 0
-0.138582 0.0359753 0
-0.146848 0.00463522 0
-0.155244 -0.0290717 0
-0.163669 -0.0650165 0
-0.171831 -0.103195 0
-0.179033 -0.143503 0
-0.184034 -0.18535 0
-0.185008 -0.227094 0
-0.179669 -0.265385 0
-0.165666 -0.294545 0
-0.141353 -0.306322 0
-0.107037 -0.29063 0
-0.0666535 -0.238617 0
-0.0290657 -0.150171 0
-0.00620555 -0.0448396 0
-0.000545587 0.0389602 0
-0.00282416 0.0942569 0
-0.00728992 0.131129 0
-0.0134241 0.154605 0
-0.0205712 0.169153 0
-0.0281636 0.177964 0
-0.035805 0.182937 0
-0.0432636 0.184991 0
-0.0504302 0.184434 0
-0.0572762 0.181245 0
-0.0638217 0.175254 0
-0.0701169 0.166245 0
-0.0762325 0.15403 0
-0.0822573 0.138481 0
-0.0883002 0.11956 0
-0.0944946 0.0973345 0
-0.101003 0.0719744 0
-0.108013 0.0437236 0
-0.115717 0.0128563 0
-0.124245 -0.0203696 0
-0.133646 -0.0558916 0
-0.1438 -0.0940035 0
-0.154187 -0.135106 0
-0.163671 -0.179261 0
-0.170361 -0.225518 0
-0.17163 -0.271031 0
-0.164414 -0.310117 0
-0.14596 -0.333516 0
-0.115206 -0.328505 0
-0.0749249 -0.281407 0
-0.0341298 -0.185765 0
-0.00759554 -0.0586407 0
-0.000308757 0.0398145 0
-0.00184021 0.0972126 0
-0.00513169 0.13593 0
-0.00983822 0.160644 0
-0.0153719 0.175794 0
-0.0211757 0.184719 0
-0.0268476 0.189496 0
-0.0321569 0.191199 0
-0.0370108 0.190246 0
-0.0414122 0.186681 0
-0.0454253 0.180376 0
-0.0491529 0.171145 0
-0.0527249 0.158818 0
-0.0562933 0.143286 0
-0.0600323 0.124536 0
-0.0641415 0.102662 0
-0.0688519 0.0778657 0
-0.0744292 0.0504199 0
-0.0811653 0.0205998 0
-0.0893352 -0.0114152 0
-0.0991352 -0.0456448 0
-0.110616 -0.0826154 0
-0.1235 -0.123224 0
-0.136888 -0.168271 0
-0.14901 -0.217697 0
-0.157088 -0.269506 0
-0.157495 -0.318453 0
-0.146379 -0.35475 0
-0.121079 -0.363326 0
-0.082669 -0.325277 0
-0.0395738 -0.225785 0
-0.0092462 -0.0754824 0
-0.000124547 0.0402478 0
-0.00103574 0.0992219 0
-0.00327369 0.13945 0
-0.00660343 0.16516 0
-0.0104946 0.180703 0
-0.0144157 0.189535 0
-0.0179798 0.193916 0
-0.0209753 0.195084 0
-0.0233404 0.19358 0
-0.0251213 0.189529 0
-0.0264339 0.182854 0
-0.0274391 0.173401 0
-0.0283292 0.161025 0
-0.0293209 0.14564 0
-0.0306518 0.127252 0
-0.0325812 0.105984 0
-0.0353922 0.0820651 0
-0.0393975 0.0558031 0
-0.0449428 0.027498 0
-0.052394 -0.00269225 0
-0.0620627 -0.034899 0
-0.0741534 -0.0697895 0
-0.0886485 -0.108671 0
-0.105002 -0.153082 0
-0.121771 -0.203995 0
-0.136305 -0.260595 0
-0.144666 -0.318596 0
-0.142044 -0.368345 0
-0.124051 -0.393025 0
-0.0895294 -0.368509 0
-0.0453886 -0.269789 0
-0.0112328 -0.0959615 0
-2.58129e-05 0.0403982 0
-0.000538106 0.100495 0
-0.00196355 0.14184 0
-0.00406818 0.168204 0
-0.0063562 0.183838 0
-0.00834343 0.192308 0
-0.00969087 0.196054 0
-0.0102354 0.196486 0
-0.00996887 0.194277 0
-0.00899622 0.189641 0
-0.00749487 0.182554 0
-0.00568842 0.1729 0
-0.00383405 0.160562 0
-0.00221403 0.145474 0
-0.00112895 0.127664 0
-0.000894037 0.107267 0
-0.00183623 0.084535 0
-0.00429304 0.0597954 0
-0.00861541 0.0333733 0
-0.0151739 0.00544205 0
-0.0243283 -0.0242102 0
-0.0363831 -0.0563328 0
-0.0515406 -0.0924755 0
-0.0696649 -0.1348 0
-0.0898426 -0.18533 0
-0.109874 -0.244695 0
-0.1259 -0.310109 0
-0.132459 -0.372895 0
-0.123469 -0.415459 0
-0.0950674 -0.408998 0
-0.0515446 -0.316963 0
-0.0136468 -0.120841 0
-5.60688e-05 0.0404801 0
-0.000509632 0.101379 0
-0.00150326 0.143376 0
-0.00263743 0.169908 0
-0.0034167 0.185202 0
-0.00343917 0.192954 0
-0.00246454 0.195781 0
-0.00042128 0.195261 0
0.00261383 0.1922 0
0.00645671 0.186902 0
0.0108551 0.179393 0
0.0155127 0.169596 0
0.0201043 0.157419 0
0.0242851 0.142816 0
0.0276973 0.125825 0
0.0299783 0.10659 0
0.0307704 0.0853621 0
0.0297315 0.062464 0
0.0265423 0.0382163 0
0.0209036 0.0127963 0
0.0125005 -0.0140068 0
0.000999947 -0.0429808 0
-0.0139486 -0.0757216 0
-0.0325708 -0.114807 0
-0.0545939 -0.163121 0
-0.0785988 -0.222867 0
-0.101298 -0.293211 0
-0.117109 -0.367422 0
-0.11853 -0.4285 0
-0.0986577 -0.444231 0
-0.0579205 -0.36599 0
-0.0165723 -0.15106 0
-0.000281647 0.0408178 0
-0.0011784 0.102392 0
-0.00228144 0.14446 0
-0.00278985 0.170466 0
-0.00217604 0.184809 0
-0.000180437 0.191374 0
0.0032657 0.19294 0
0.0080738 0.19125 0
0.0140307 0.187219 0
0.0208514 0.181219 0
0.0282027 0.173326 0
0.0357192 0.163489 0
0.043015 0.151638 0
0.0496921 0.137739 0
0.0553479 0.121834 0
0.0595866 0.104061 0
0.0620331 0.0846522 0
0.0623492 0.0638966 0
0.0602467 0.0420753 0
0.055487 0.0193358 0
0.0478495 -0.00450572 0
0.0370965 -0.0302283 0
0.0229437 -0.0593727 0
0.00497152 -0.0945617 0
-0.0172355 -0.139137 0
-0.043276 -0.196806 0
-0.0709586 -0.26889 0
-0.0953332 -0.351558 0
-0.108113 -0.430163 0
-0.0993102 -0.471244 0
-0.0641678 -0.414857 0
-0.0200382 -0.187671 0
-0.000815831 0.0419153 0
-0.00289333 0.104268 0
-0.00482157 0.145614 0
-0.00509371 0.170092 0
-0.00315637 0.182631 0
0.000995059 0.187404 0
0.00713443 0.187324 0
0.014931 0.184261 0
0.0239967 0.179185 0
0.033925 0.172504 0
0.0442988 0.164316 0
0.0546925 0.154589 0
0.0646746 0.143261 0
0.0738124 0.130301 0
0.0816795 0.115748 0
0.0878681 0.0997198 0
0.092005 0.0824105 0
0.0937698 0.0640574 0
0.0929093 0.0448775 0
0.0892388 0.0249639 0
0.0826159 0.0041265 0
0.0728676 -0.0183592 0
0.0597368 -0.0439582 0
0.0428364 -0.0751037 0
0.0216565 -0.115208 0
-0.00436806 -0.16867 0
-0.0347772 -0.238934 0
-0.0661695 -0.325747 0
-0.0905727 -0.418791 0
-0.095399 -0.486592 0
-0.069482 -0.460568 0
-0.0239312 -0.23164 0
-0.00186212 0.0445932 0
-0.00620665 0.108012 0
-0.00982465 0.147416 0
-0.0101792 0.168917 0
-0.00682233 0.178513 0
-0.000208098 0.180757 0
0.00898563 0.178638 0
0.0200972 0.174039 0
0.0325289 0.16791 0
0.0457449 0.160635 0
0.0592535 0.152303 0
0.0725873 0.142875 0
0.0852926 0.132287 0
0.0969279 0.120502 0
0.107069 0.107539 0
0.115322 0.0934877 0
0.121335 0.0784923 0
0.124821 0.062725 0
0.125563 0.0463279 0
0.12342 0.0293275 0
0.118296 0.0115095 0
0.110077 -0.00777508 0
0.0985214 -0.0298558 0
0.0832169 -0.0570012 0
0.0635512 -0.0924646 0
0.0386773 -0.140515 0
0.00782997 -0.205833 0
-0.0281804 -0.291446 0
-0.0634981 -0.393371 0
-0.0842866 -0.486397 0
-0.0722364 -0.498731 0
-0.0278468 -0.283418 0
-0.00377952 0.0502349 0
-0.0119514 0.114887 0
-0.0181023 0.15031 0
-0.0185083 0.166783 0
-0.0132324 0.172014 0
-0.00351667 0.170926 0
0.00933678 0.166422 0
0.0242635 0.160217 0
0.0404417 0.153122 0
0.0572246 0.145424 0
0.0740742 0.137156 0
0.0905118 0.128251 0
0.106093 0.118625 0
0.120398 0.108224 0
0.133034 0.0970405 0
0.143643 0.0851247 0
0.151918 0.072567 0
0.157612 0.059471 0
0.160546 0.0459049 0
0.160609 0.0318317 0
0.157726 0.0170118 0
0.151806 0.000861063 0
0.14261 -0.0177402 0
0.129678 -0.0408804 0
0.112261 -0.0715026 0
0.0892023 -0.113544 0
0.0590412 -0.171795 0
0.0207737 -0.251206 0
-0.0234947 -0.354025 0
-0.0618428 -0.466607 0
-0.0693949 -0.523019 0
-0.0308245 -0.342089 0
-0.00713702 0.0611514 0
-0.0211344 0.12614 0
-0.0300354 0.15411 0
-0.0294712 0.162826 0
-0.0209065 0.16213 0
-0.00681975 0.157007 0
0.0107293 0.149939 0
0.0302712 0.142232 0
0.0508041 0.134396 0
0.0716296 0.126541 0
0.0922149 0.118604 0
0.112114 0.110466 0
0.13093 0.102013 0
0.148296 0.0931648 0
0.163876 0.0838836 0
0.177371 0.0741769 0
0.188529 0.0640826 0
0.197147 0.0536427 0
0.203081 0.0428644 0
0.206228 0.0316637 0
0.2065 0.01979 0
0.20378 0.00672275 0
0.197843 -0.00846856 0
0.188176 -0.0275534 0
0.173824 -0.0530607 0
0.153288 -0.0883911 0
0.124462 -0.137961 0
0.0849975 -0.207308 0
0.0339625 -0.302619 0
-0.0219013 -0.4238 0
-0.0555509 -0.524624 0
-0.0308461 -0.40376 0
-0.012545 0.0808334 0
-0.0338945 0.141805 0
-0.0433153 0.156766 0
-0.0383337 0.154623 0
-0.0233403 0.146775 0
-0.00244078 0.137377 0
0.0215973 0.127982 0
0.0470647 0.119179 0
0.0729494 0.111032 0
0.0986158 0.103414 0
0.123616 0.0961453 0
0.147593 0.0890475 0
0.170236 0.0819723 0
0.191264 0.0748118 0
0.210421 0.0675003 0
0.227477 0.0600085 0
0.24224 0.0523309 0
0.254551 0.0444637 0
0.264287 0.0363738 0
0.271339 0.0279558 0
0.275591 0.0189738 0
0.276869 0.00898132 0
0.274877 -0.00279796 0
0.269024 -0.0177043 0
0.258181 -0.0377151 0
0.240492 -0.0655111 0
0.213249 -0.104772 0
0.172984 -0.160768 0
0.116367 -0.241508 0
0.0443098 -0.356991 0
-0.0213044 -0.49217 0
-0.0238085 -0.458415 0
-0.0191499 0.112528 0