# vtk DataFile Version 2.0
Lid-driven cavity
ASCII
DATASET STRUCTURED_POINTS
DIMENSIONS 32 32 1
ORIGIN 0.015625 0.015625 0
SPACING 0.03125 0.03125 1
POINT_DATA 1024
SCALARS pressure double 1
LOOKUP_TABLE default
13.6096
13.5376
13.4317
13.3329
13.263
13.2317
13.2428
13.2979
13.3992
13.5494
13.7519
14.0096
14.3239
14.6939
15.1146
15.5769
16.0667
16.5657
17.0508
17.4959
17.875
18.1656
18.352
18.4288
18.4016
18.2878
18.1133
17.91
17.7113
17.5493
17.4507
17.4297
13.6817
13.6071
13.5221
13.4485
13.4
13.3838
13.4035
13.4617
13.5608
13.7038
13.894
14.1341
14.4255
14.7673
15.1552
15.5809
16.0318
16.4915
16.9389
17.3502
17.7016
17.9726
18.1493
18.2271
18.2123
18.1212
17.9777
17.8098
17.6457
17.5112
17.4273
17.4086
13.7906
13.6867
13.5988
13.5343
13.4973
13.4903
13.5145
13.5718
13.6647
13.7965
13.9707
14.1908
14.459
14.7755
15.1372
15.5372
15.9644
16.4032
16.8335
17.2316
17.5737
17.839
18.0132
18.0915
18.08
17.9949
17.8603
17.7031
17.5493
17.4215
17.3375
17.3112
13.8904
13.7471
13.6447
13.5786
13.5448
13.5402
13.5632
13.6143
13.6955
13.8107
13.9643
14.1609
14.4044
14.6966
15.0366
15.4192
15.8347
16.2678
16.6981
17.1012
17.4516
17.7263
17.9087
17.9921
17.9817
17.8939
17.7535
17.5887
17.426
17.2872
17.1888
17.1436
13.9433
13.7589
13.6368
13.5629
13.5256
13.5166
13.5316
13.5695
13.6323
13.7242
13.8509
14.0189
14.234
14.5006
14.8203
15.1903
15.6028
16.0421
16.4875
16.9132
17.2909
17.5936
17.8003
17.9006
17.8969
17.8049
17.6508
17.4652
17.2778
17.1124
16.9865
16.913
13.917
13.693
13.5498
13.4642
13.4177
13.3977
13.3972
13.4139
13.4498
13.5098
13.6014
13.7329
13.9129
14.1487
14.4452
14.8028
15.2164
15.6703
16.1441
16.6104
17.0371
17.3917
17.6467
17.7846
17.8025
17.7135
17.5443
17.3295
17.1041
16.8975
16.7313
16.621
13.7817
13.5207
13.3565
13.2566
13.1961
13.1583
13.134
13.1201
13.1188
13.1361
13.1809
13.2641
13.3975
13.5921
13.8564
14.1952
14.6074
15.0793
15.5918
16.1166
16.6175
17.055
17.3919
17.6002
17.6672
17.5996
17.4229
17.1758
16.9017
16.6396
16.4193
16.2625
13.5088
13.2142
13.0296
12.9133
12.8338
12.7708
12.7135
12.658
12.6068
12.5668
12.5489
12.5667
12.6355
12.7706
12.9855
13.2903
13.6893
14.1747
14.7311
15.3306
15.9335
16.4922
16.9566
17.2832
17.4436
17.4319
17.2681
16.9941
16.664
16.332
16.0422
15.826
13.0714
12.7471
12.5429
12.4074
12.3034
12.2071
12.1059
11.9955
11.8784
11.7624
11.6604
11.5887
11.5665
11.6144
11.752
11.9962
12.3584
12.8413
13.4375
14.1229
14.8557
15.5796
16.2292
16.7398
17.0593
17.1603
17.0491
16.7669
16.3804
15.965
15.5873
15.2949
12.4453
12.0956
11.872
11.7143
11.5792
11.44
11.2822
11.1007
10.8979
10.6823
10.4681
10.2748
10.1257
10.0475
10.0674
10.2112
10.4995
10.948
11.5661
12.338
13.2233
14.1585
15.0609
15.8394
16.4086
16.7074
16.7161
16.4659
16.0345
15.5255
15.039
14.6488
11.61
11.2395
10.9966
10.8126
10.6389
10.4457
10.2164
9.94497
9.63291
9.28885
8.92819
8.57288
8.25109
7.99614
7.84467
7.83371
7.99675
8.35996
8.96301
9.80545
10.8538
12.0408
13.2675
14.4121
15.3469
15.962
16.1934
16.0464
15.602
14.9969
14.3796
13.8645
10.5504
10.1643
9.90189
9.68693
9.46614
9.20647
8.88941
8.50684
8.05896
7.55364
7.00668
6.44227
5.89323
5.40047
5.01137
4.77668
4.7457
4.95989
5.48674
6.36085
7.56225
9.02636
10.6419
12.2565
13.6922
14.7749
15.3736
15.4425
15.0482
14.3597
13.5904
12.9179
9.25885
8.86261
8.58026
8.32945
8.05271
7.71398
7.29216
6.77661
6.16518
5.46397
4.68829
3.86385
3.02786
2.22917
1.52714
0.988479
0.681573
0.668092
1.03553
1.87595
3.19214
4.93184
6.98004
9.15844
11.2372
12.9646
14.117
14.5636
14.3256
13.5911
12.6543
11.7865
7.73571
7.33517
7.03279
6.7417
6.40098
5.97163
5.42954
4.76079
3.95986
3.02998
1.9848
0.850598
-0.331725
-1.50546
-2.5986
-3.52675
-4.19919
-4.52838
-4.41895
-3.70474
-2.34528
-0.368833
2.11884
4.92543
7.77497
10.3322
12.2577
13.2951
13.3727
12.667
11.5592
10.4541
5.99058
5.59161
5.2698
4.93552
4.52512
3.99675
3.32288
2.48555
1.47488
0.290046
-1.0582
-2.54426
-4.12457
-5.73529
-7.29195
-8.69178
-9.81979
-10.5589
-10.8025
-10.329
-9.03086
-6.90006
-4.01686
-0.568818
3.13843
6.69211
9.62246
11.5065
12.1178
11.5649
10.304
8.91689
4.0417
3.64999
3.31064
2.93303
2.45148
1.8213
1.01116
-0.00162264
-1.23222
-2.68664
-4.35824
-6.22347
-8.23744
-10.3305
-12.4069
-14.346
-16.0085
-17.2474
-17.9246
-17.8133
-16.7064
-14.5457
-11.369
-7.33495
-2.75124
1.91361
6.06145
9.07007
10.4879
10.2713
8.90693
7.19325
1.91473
1.53539
1.18224
0.76532
0.217443
-0.509064
-1.44978
-2.63277
-4.07928
-5.80144
-7.79787
-10.0483
-12.5081
-15.1034
-17.7289
-20.2483
-22.4996
-24.3057
-25.4923
-25.8418
-25.0639
-23.0283
-19.7147
-15.2262
-9.83638
-4.03038
1.48999
5.89047
8.42679
8.79296
7.41888
5.33729
-0.359737
-0.722736
-1.08356
-1.53015
-2.13108
-2.93755
-3.99008
-5.32282
-6.96378
-8.93194
-11.232
-13.848
-16.737
-19.8227
-22.9929
-26.0981
-28.957
-31.3659
-33.1151
-33.9892
-33.6616
-31.9168
-28.6608
-23.9183
-17.8881
-11.0187
-4.06498
1.94445
5.92312
7.17764
5.94211
3.45924
-2.74971
-3.09417
-3.45371
-3.91319
-4.54333
-5.40013
-6.53034
-7.97514
-9.76999
-11.9412
-14.5
-17.4354
-20.7068
-24.2378
-27.9109
-31.5678
-35.0122
-38.0193
-40.3509
-41.7751
-41.9751
-40.6699
-37.6754
-32.9226
-26.4987
-18.7546
-10.4243
-2.67568
3.0479
5.54302
4.65837
1.75565
-5.22618
-5.55256
-5.89846
-6.34533
-6.96801
-7.83015
-8.98704
-10.4884
-12.3778
-14.6892
-17.4402
-20.625
-24.2058
-28.1065
-32.2074
-36.3441
-40.3107
-43.8683
-46.759
-48.7247
-49.4763
-48.7096
-46.155
-41.6389
-35.1117
-26.7687
-17.2341
-7.72297
-0.00186695
4.11818
3.87059
0.556379
-7.76836
-8.08078
-8.39653
-8.79433
-9.35765
-10.1629
-11.278
-12.7635
-14.672
-17.0449
-19.9056
-23.2525
-27.0504
-31.224
-35.6527
-40.169
-44.5617
-48.5844
-51.9683
-54.4377
-55.7166
-55.5132
-53.5171
-49.4406
-43.0892
-34.4585
-23.9722
-12.772
-2.85925
3.297
4.06405
0.397208
-10.3701
-10.6774
-10.9405
-11.2386
-11.6722
-12.3394
-13.3271
-14.71
-16.5506
-18.8968
-21.7767
-25.1908
-29.1054
-33.4454
-38.0901
-42.8712
-47.576
-51.9556
-55.7376
-58.6401
-60.3849
-60.7046
-59.2944
-55.7744
-49.8054
-41.1612
-29.9884
-17.2199
-4.95241
3.70054
5.9914
2.12769
-13.048
-13.3648
-13.5431
-13.6707
-13.8811
-14.3084
-15.0673
-16.2507
-17.9313
-20.1618
-22.9717
-26.3619
-30.2981
-34.7046
-39.4593
-44.3934
-49.2948
-53.9159
-57.986
-61.225
-63.3519
-64.107
-63.21
-60.2472
-54.7414
-46.2435
-34.5713
-20.3159
-5.48828
6.24011
10.7812
7.06095
-15.855
-16.2012
-16.244
-16.1004
-15.9641
-16.0266
-16.4423
-17.3256
-18.7591
-20.7973
-23.4675
-26.7665
-30.6553
-35.0536
-39.8364
-44.8331
-49.8318
-54.5874
-58.8336
-62.2952
-64.697
-65.7682
-65.2187
-62.6712
-57.5521
-49.1783
-37.022
-21.2121
-3.4623
12.1662
20.0595
17.1647
-18.9042
-19.3009
-19.1207
-18.5563
-17.909
-17.457
-17.4068
-17.8944
-19.0066
-20.7938
-23.2751
-26.438
-30.2348
-34.5776
-39.3356
-44.3352
-49.3636
-54.1772
-58.5127
-62.099
-64.6644
-65.9322
-65.5673
-63.1512
-58.0852
-49.5783
-36.705
-19.0162
2.30746
23.0847
36.0628
35.2854
-22.4201
-22.8714
-22.3033
-21.0866
-19.7068
-18.5636
-17.9216
-17.9289
-18.6654
-20.1671
-22.4368
-25.4465
-29.135
-33.4038
-38.1145
-43.0884
-48.1107
-52.937
-57.3038
-60.9381
-63.5633
-64.8955
-64.5594
-62.0304
-56.6139
-47.3228
-33.058
-12.8175
13.1352
40.922
61.7085
65.3926
-26.8538
-27.2869
-25.9976
-23.7537
-21.3396
-19.302
-17.9485
-17.4147
-17.7511
-18.9641
-21.0296
-23.8974
-27.4885
-31.6912
-36.3577
-41.3032
-46.3089
-51.1275
-55.4908
-59.1168
-61.7125
-62.9675
-62.4902
-59.5957
-53.405
-42.6821
-25.9162
-1.68505
30.4277
67.8175
100.571
112.839
-33.1564
-33.2239
-30.5025
-26.6031
-22.7448
-19.5935
-17.4352
-16.3387
-16.2907
-17.2475
-19.1469
-21.9101
-25.4373
-29.6016
-34.245
-39.1756
-44.1696
-48.9742
-53.3127
-56.8872
-59.3763
-60.4226
-59.603
-56.0634
-48.6367
-35.7563
-15.3938
14.5998
55.5827
105.907
156.664
184.637
-43.4617
-41.865
-36.1339
-29.5236
-23.6979
-19.2394
-16.2498
-14.6328
-14.2703
-15.0462
-16.85
-19.5705
-23.0856
-27.2533
-31.9049
-36.8417
-41.8339
-46.6223
-50.9186
-54.4035
-56.7176
-57.4405
-56.0523
-51.5733
-42.4323
-26.6454
-1.57173
35.8697
88.5268
156.956
233.767
289.735
-62.8046
-54.836
-42.6397
-31.7288
-23.4667
-17.6806
-13.9717
-12.0006
-11.493
-12.2394
-14.0749
-16.8554
-20.4389
-24.6708
-29.3745
-34.346
-39.3512
-44.1243
-48.3645
-51.728
-53.8106
-54.1135
-51.986
-46.2716
-35.018
-15.7868
14.7376
60.8042
127.485
219.63
335.594
438.879
-102.822
-71.542
-46.7225
-30.1932
-19.7013
-13.2137
-9.45289
-7.67747
-7.44626
-8.48015
-10.5844
-13.6024
-17.3867
-21.7812
-26.6096
-31.6688
-36.7246
-41.5079
-45.7077
-48.9575
-50.8083
-50.68
-47.7787
-40.7106
-27.3341
-4.84161
30.6874
84.7646
165.511
285.905
464.895
681.139
-200.92
-76.6648
-33.5256
-16.0955
-7.74104
-3.41295
-1.36808
-0.899112
-1.6649
-3.46956
-6.17714
-9.67142
-13.8334
-18.5276
-23.5934
-28.8393
-34.0396
-38.9294
-43.1957
-46.4611
-48.2503
-47.9287
-44.5858
-36.7423
-22.2574
1.82702
39.7186
97.7092
186.445
328.385
583.839
1110.1
VECTORS velocity double
7.52963e-05 -7.52964e-05 0
0.000142979 7.61352e-06 0
-8.91644e-06 0.000144282 0
-0.000419756 0.000266557 0
-0.00104509 0.000358779 0
-0.00182867 0.000424795 0
-0.00272576 0.000472294 0
-0.00370467 0.000506617 0
-0.00474054 0.000529258 0
-0.00580825 0.000538451 0
-0.0068771 0.000530403 0
-0.00790806 0.000500552 0
-0.00885326 0.000444647 0
-0.00965757 0.00035966 0
-0.0102618 0.000244588 0
-0.0106075 0.000101144 0
-0.0106429 -6.57702e-05 0
-0.0103291 -0.000248046 0
-0.00964849 -0.000432571 0
-0.00861317 -0.000602745 0
-0.00727027 -0.000740157 0
-0.00570309 -0.000827026 0
-0.00402682 -0.000849246 0
-0.00237803 -0.000799544 0
-0.000898464 -0.000680019 0
0.000284799 -0.000503245 0
0.00107965 -0.000291603 0
0.00144486 -7.36056e-05 0
0.00140068 0.000117786 0
0.00103716 0.000245728 0
0.000525752 0.00026568 0
0.000130036 0.000130036 0
-1.10879e-05 -0.000139505 0
-0.000280311 0.000273363 0
-0.0010952 0.000845313 0
-0.00247739 0.00135856 0
-0.00434138 0.0017561 0
-0.0065773 0.00204696 0
-0.00908553 0.00225544 0
-0.0117819 0.00239874 0
-0.0145896 0.00248074 0
-0.0174286 0.00249368 0
-0.0202074 0.00242277 0
-0.0228194 0.0022511 0
-0.025144 0.00196397 0
-0.0270518 0.00155247 0
-0.0284123 0.00101647 0
-0.0291043 0.000367044 0
-0.0290286 -0.000372065 0
-0.0281208 -0.00116333 0
-0.0263657 -0.001953 0
-0.0238082 -0.0026752 0
-0.0205608 -0.003258 0
-0.0168049 -0.00363223 0
-0.0127829 -0.00374232 0
-0.00878019 -0.00355796 0
-0.00509719 -0.00308417 0
-0.00201254 -0.00236701 0
0.000257531 -0.00149276 0
0.00159905 -0.000579185 0
0.00202997 0.000236628 0
0.00171577 0.000804604 0
0.000973453 0.000960526 0
0.000272143 0.000532215 0
-0.000185434 5.70174e-05 0
-0.00100671 0.00116734 0
-0.00271051 0.00247002 0
-0.00521179 0.00361733 0
-0.00836474 0.00451428 0
-0.0120167 0.00517668 0
-0.0160295 0.0056467 0
-0.0202784 0.00595283 0
-0.0246425 0.00609844 0
-0.0289928 0.00606532 0
-0.033186 0.00582309 0
-0.0370626 0.00533936 0
-0.0404509 0.0045886 0
-0.0431746 0.00355934 0
-0.0450642 0.00225968 0
-0.0459698 0.000721504 0
-0.0457751 -0.000996971 0
-0.0444121 -0.00280917 0
-0.0418738 -0.00460058 0
-0.0382251 -0.00623385 0
-0.0336118 -0.00756012 0
-0.0282624 -0.00843534 0
-0.0224827 -0.00874091 0
-0.0166382 -0.00840662 0
-0.0111242 -0.00743248 0
-0.0063234 -0.00590412 0
-0.00255309 -0.00399603 0
-1.05018e-05 -0.00196002 0
0.0012754 -9.9359e-05 0
0.00147385 0.00125634 0
0.000954891 0.00177006 0
0.00028726 0.00109162 0
-0.000391682 0.000634134 0
-0.00186049 0.00288031 0
-0.00457639 0.00517675 0
-0.00829192 0.00712741 0
-0.0127747 0.00863994 0
-0.0178246 0.00975292 0
-0.0232706 0.0105292 0
-0.028957 0.0110057 0
-0.0347284 0.011181 0
-0.0404184 0.0110231 0
-0.0458451 0.0104852 0
-0.0508121 0.00952087 0
-0.0551149 0.0080982 0
-0.0585511 0.00620956 0
-0.0609313 0.00387935 0
-0.062093 0.00116908 0
-0.0619127 -0.0018195 0
-0.0603181 -0.00494421 0
-0.0572979 -0.00802411 0
-0.0529139 -0.010843 0
-0.0473131 -0.0131651 0
-0.0407345 -0.0147583 0
-0.0335085 -0.0154237 0
-0.0260453 -0.0150317 0
-0.0188084 -0.0135584 0
-0.0122708 -0.0111166 0
-0.00685438 -0.00797027 0
-0.0028594 -0.00452336 0
-0.000398703 -0.00128262 0
0.000648367 0.00119408 0
0.000653794 0.00234586 0
0.000229182 0.00160806 0
-0.000609135 0.00163495 0
-0.00276256 0.00550173 0
-0.00654117 0.00904983 0
-0.0115079 0.0119366 0
-0.0173275 0.0141332 0
-0.0237477 0.0157297 0
-0.0305676 0.0168183 0
-0.0376081 0.0174435 0
-0.0446899 0.0175963 0
-0.0516217 0.0172296 0
-0.0581968 0.0162805 0
-0.0641968 0.0146925 0
-0.0693988 0.0124315 0
-0.0735857 0.00949931 0
-0.0765571 0.00594127 0
-0.0781403 0.00185197 0
-0.0782007 -0.00262225 0
-0.0766494 -0.00728739 0
-0.0734509 -0.0118997 0
-0.0686388 -0.0161635 0
-0.0623338 -0.0197505 0
-0.054757 -0.0223283 0
-0.046238 -0.0235987 0
-0.0372115 -0.0233463 0
-0.0281987 -0.0214934 0
-0.0197656 -0.0181522 0
-0.0124569 -0.0136598 0
-0.00670863 -0.00857713 0
-0.00275709 -0.00364108 0
-0.000569397 0.000317779 0
0.000188202 0.00245913 0
0.00013518 0.00197242 0
-0.00082799 0.00307208 0
-0.00366873 0.00905877 0
-0.00850799 0.0141107 0
-0.0147114 0.0180459 0
-0.0218369 0.020969 0
-0.0295797 0.023057 0
-0.0377135 0.0244447 0
-0.0460429 0.025187 0
-0.0543751 0.0252667 0
-0.0625053 0.0246212 0
-0.0702148 0.0231735 0
-0.0772741 0.0208588 0
-0.083451 0.0176441 0
-0.0885189 0.0135416 0
-0.0922659 0.00861751 0
-0.0945039 0.00299688 0
-0.095076 -0.00313469 0
-0.0938615 -0.00954077 0
-0.0907825 -0.0159238 0
-0.085823 -0.021911 0
-0.0790541 -0.0270769 0
-0.0706566 -0.0309762 0
-0.0609374 -0.0331889 0
-0.0503389 -0.0333811 0
-0.0394304 -0.0313799 0
-0.0288755 -0.0272536 0
-0.0193639 -0.0213786 0
-0.0115082 -0.0144624 0
-0.00571973 -0.00749582 0
-0.00210077 -0.00163413 0
-0.000390052 0.00194272 0
2.20991e-05 0.0021297 0
-0.00104049 0.00494055 0
-0.00454426 0.0135348 0
-0.0103997 0.0203294 0
-0.0177812 0.025412 0
-0.0261449 0.0290921 0
-0.035139 0.031671 0
-0.0445171 0.0333425 0
-0.0540753 0.0341768 0
-0.0636159 0.0341497 0
-0.072931 0.0331837 0
-0.0817991 0.0311885 0
-0.0899874 0.0280915 0
-0.0972584 0.0238593 0
-0.103376 0.018512 0
-0.108113 0.0121311 0
-0.111256 0.00486453 0
-0.112615 -0.00307197 0
-0.112024 -0.0114085 0
-0.109352 -0.0198069 0
-0.104518 -0.0278217 0
-0.0975256 -0.0349275 0
-0.0884945 -0.0405543 0
-0.0776871 -0.0441373 0
-0.0655306 -0.0451877 0
-0.0526254 -0.043387 0
-0.0397273 -0.0386996 0
-0.027687 -0.0314845 0
-0.0173355 -0.0225638 0
-0.00932211 -0.0131962 0
-0.00395013 -0.00492472 0
-0.00107522 0.000647679 0
-0.000107211 0.00204459 0
-0.00123825 0.00721929 0
-0.00535483 0.0188764 0
-0.0121441 0.0276325 0
-0.0206052 0.0339515 0
-0.0301046 0.0384158 0
-0.0402514 0.0414882 0
-0.0507856 0.0434376 0
-0.0615018 0.0443561 0
-0.0722051 0.0442144 0
-0.0826921 0.0429211 0
-0.0927447 0.0403717 0
-0.102132 0.0364834 0
-0.110611 0.031218 0
-0.117936 0.0245961 0
-0.123858 0.0167057 0
-0.128132 0.00770713 0
-0.130524 -0.00216421 0
-0.130821 -0.0126096 0
-0.128831 -0.0232671 0
-0.124401 -0.0336259 0
-0.117455 -0.0430617 0
-0.108034 -0.050873 0
-0.096328 -0.0563315 0
-0.0827202 -0.0587578 0
-0.0678108 -0.0576316 0
-0.0524254 -0.0527385 0
-0.0375746 -0.0443366 0
-0.0243404 -0.0332974 0
-0.01368 -0.0211364 0
-0.00618421 -0.00985216 0
-0.00189257 -0.00159144 0
-0.000257123 0.00168026 0
-0.00141194 0.00986949 0
-0.00606443 0.0249953 0
-0.0136684 0.0359068 0
-0.0230732 0.043543 0
-0.0335708 0.0488212 0
-0.0447399 0.0523987 0
-0.0563136 0.0546351 0
-0.0680902 0.0556513 0
-0.0798834 0.0554157 0
-0.0914993 0.0538227 0
-0.102728 0.0507515 0
-0.113342 0.0461043 0
-0.123096 0.0398309 0
-0.131731 0.0319429 0
-0.138974 0.0225237 0
-0.144546 0.0117354 0
-0.14817 -0.000176847 0
-0.149581 -0.0128884 0
-0.148532 -0.0260274 0
-0.144796 -0.0390316 0
-0.138212 -0.0511861 0
-0.128723 -0.0616593 0
-0.116424 -0.0695495 0
-0.101614 -0.0739579 0
-0.0848467 -0.074108 0
-0.0669743 -0.0695199 0
-0.0491403 -0.06024 0
-0.0326893 -0.0470792 0
-0.0189501 -0.0317544 0
-0.00890817 -0.0167719 0
-0.00288994 -0.0049816 0
-0.000439052 0.000984081 0
-0.00155167 0.0128331 0
-0.00663628 0.0317688 0
-0.0149007 0.0450017 0
-0.0250768 0.0540291 0
-0.036399 0.0601549 0
-0.0484239 0.064259 0
-0.0608819 0.0668065 0
-0.073579 0.0679535 0
-0.0863409 0.0676686 0
-0.0989868 0.0658317 0
-0.111318 0.0623022 0
-0.123112 0.0569617 0
-0.134124 0.0497393 0
-0.144082 0.0406275 0
-0.152695 0.0296947 0
-0.159652 0.0170942 0
-0.164637 0.0030726 0
-0.167338 -0.012025 0
-0.167458 -0.02782 0
-0.164711 -0.0437223 0
-0.158847 -0.058944 0
-0.1497 -0.0725365 0
-0.137243 -0.083428 0
-0.121647 -0.0904858 0
-0.103364 -0.0926302 0
-0.083206 -0.0890282 0
-0.0623917 -0.07938 0
-0.0425057 -0.0642762 0
-0.0252918 -0.0455106 0
-0.0122467 -0.0261026 0
-0.00412869 -0.0097871 0
-0.000667513 -0.000122484 0
-0.00164788 0.0160327 0
-0.00703539 0.0390413 0
-0.0157729 0.054731 0
-0.0265134 0.0652166 0
-0.0384505 0.0722267 0
-0.0511249 0.0768865 0
-0.0642667 0.0797789 0
-0.0776908 0.0811021 0
-0.0912367 0.0808277 0
-0.104739 0.0788203 0
-0.118011 0.0749166 0
-0.130841 0.0689716 0
-0.142986 0.060886 0
-0.154171 0.0506249 0
-0.164093 0.038232 0
-0.172422 0.0238428 0
-0.178811 0.00769745 0
-0.182909 -0.00985036 0
-0.184384 -0.0283988 0
-0.182907 -0.0473681 0
-0.178146 -0.0659237 0
-0.169822 -0.0830265 0
-0.157762 -0.0974556 0
-0.141968 -0.107848 0
-0.122725 -0.112794 0
-0.100722 -0.111026 0
-0.0771644 -0.101754 0
-0.0538112 -0.0851412 0
-0.0328246 -0.0628462 0
-0.0163213 -0.0383155 0
-0.00567536 -0.0163382 0
-0.000958964 -0.00174896 0
-0.00169237 0.0193729 0
-0.00723183 0.046628 0
-0.0162267 0.0648766 0
-0.027294 0.0768789 0
-0.0396024 0.0848098 0
-0.0526805 0.0900559 0
-0.0662579 0.0933289 0
-0.0801575 0.0948758 0
-0.0942321 0.0946745 0
-0.108332 0.0925751 0
-0.122287 0.0883892 0
-0.135899 0.0819411 0
-0.148936 0.0730982 0
-0.161129 0.0617917 0
-0.172176 0.0480339 0
-0.181742 0.0319358 0
-0.189471 0.013722 0
-0.194991 -0.00625651 0
-0.19795 -0.0275581 0
-0.197987 -0.0496491 0
-0.194707 -0.0716835 0
-0.187725 -0.0925726 0
-0.176708 -0.110987 0
-0.161454 -0.125364 0
-0.142016 -0.133959 0
-0.118865 -0.135016 0
-0.0930766 -0.12711 0
-0.0664752 -0.109739 0
-0.0415889 -0.0841209 0
-0.0212282 -0.0539049 0
-0.00759416 -0.0250288 0
-0.0013305 -0.00403842 0
-0.00167947 0.0227447 0
-0.00720456 0.0543208 0
-0.0162202 0.0751944 0
-0.0273527 0.0887608 0
-0.0397606 0.0976441 0
-0.0529619 0.103501 0
-0.0666829 0.107182 0
-0.0807514 0.108991 0
-0.0950324 0.108915 0
-0.109392 0.106794 0
-0.12368 0.102413 0
-0.137716 0.0955655 0
-0.151289 0.086083 0
-0.164149 0.0738603 0
-0.176013 0.0588755 0
-0.186562 0.0412097 0
-0.195451 0.0210658 0
-0.202315 -0.00121576 0
-0.206795 -0.02516 0
-0.208517 -0.0502888 0
-0.207051 -0.075789 0
-0.201923 -0.100578 0
-0.192641 -0.123281 0
-0.178775 -0.14219 0
-0.160084 -0.155261 0
-0.136726 -0.160223 0
-0.109513 -0.154903 0
-0.0801828 -0.137878 0
-0.0515125 -0.109538 0
-0.0270192 -0.0733414 0
-0.00994097 -0.0363045 0
-0.00179919 -0.00716811 0
-0.00160705 0.0260313 0
-0.00694497 0.0618972 0
-0.0157345 0.0854231 0
-0.0266565 0.100587 0
-0.0388734 0.110443 0
-0.0518922 0.116922 0
-0.0654312 0.121021 0
-0.0793192 0.123108 0
-0.0934305 0.12319 0
-0.107648 0.121096 0
-0.121841 0.116592 0
-0.135858 0.10944 0
-0.149514 0.0994381 0
-0.162597 0.0864477 0
-0.174858 0.0704126 0
-0.186019 0.0513829 0
-0.195772 0.0295352 0
-0.203784 0.0051909 0
-0.209704 -0.0211668 0
-0.213172 -0.049092 0
-0.213765 -0.0778586 0
-0.210944 -0.106458 0
-0.204076 -0.133551 0
-0.192491 -0.157372 0
-0.175613 -0.175647 0
-0.153195 -0.185615 0
-0.125644 -0.184276 0
-0.0944273 -0.169054 0
-0.0623907 -0.13907 0
-0.0336846 -0.0970095 0
-0.0127573 -0.050642 0
-0.00238121 -0.0113485 0
-0.00147737 0.0291157 0
-0.00645979 0.0691331 0
-0.0147791 0.0952961 0
-0.025214 0.11207 0
-0.0369435 0.122906 0
-0.0494626 0.129998 0
-0.0624763 0.134498 0
-0.0758092 0.136852 0
-0.0893423 0.137091 0
-0.102974 0.135045 0
-0.116598 0.130462 0
-0.130094 0.123081 0
-0.143316 0.112675 0
-0.156098 0.0990748 0
-0.168247 0.0821958 0
-0.179547 0.0620606 0
-0.189753 0.0388174 0
-0.198591 0.0127582 0
-0.205742 -0.0156631 0
-0.210892 -0.0459778 0
-0.213661 -0.0776111 0
-0.213487 -0.1097 0
-0.209628 -0.141036 0
-0.201188 -0.169912 0
-0.187233 -0.193938 0
-0.167039 -0.209936 0
-0.140474 -0.21407 0
-0.108529 -0.202421 0
-0.0738817 -0.172387 0
-0.0411434 -0.125137 0
-0.0160655 -0.0685195 0
-0.00309145 -0.0168212 0
-0.00129748 0.0318905 0
-0.00577298 0.0758162 0
-0.0133959 0.104555 0
-0.0230811 0.122931 0
-0.0340363 0.13473 0
-0.0457434 0.1424 0
-0.0578893 0.147256 0
-0.0702895 0.149828 0
-0.0828289 0.150187 0
-0.0954215 0.148172 0
-0.107988 0.143524 0
-0.120442 0.135968 0
-0.132685 0.125255 0
-0.144607 0.111199 0
-0.156082 0.0936958 0
-0.16697 0.0727482 0
-0.177113 0.0484796 0
-0.186327 0.0211475 0
-0.194382 -0.00884588 0
-0.201028 -0.0409993 0
-0.20594 -0.0749091 0
-0.208589 -0.109925 0
-0.208179 -0.14508 0
-0.203628 -0.178861 0
-0.193656 -0.208915 0
-0.177016 -0.231792 0
-0.15292 -0.242875 0
-0.12168 -0.2368 0
-0.0855192 -0.208816 0
-0.0492394 -0.157726 0
-0.0198671 -0.0903812 0
-0.003944 -0.0238566 0
-0.00107928 0.0342673 0
-0.00492617 0.0817618 0
-0.0116611 0.112968 0
-0.0203642 0.132907 0
-0.0302834 0.145628 0
-0.0408881 0.153813 0
-0.0518432 0.158943 0
-0.062952 0.161649 0
-0.0741017 0.162055 0
-0.0852226 0.160019 0
-0.0962637 0.155286 0
-0.107179 0.147576 0
-0.11792 0.136632 0
-0.128438 0.122261 0
-0.13868 0.104351 0
-0.148595 0.0828957 0
-0.158125 0.0580061 0
-0.167202 0.0299112 0
-0.175719 -0.00103749 0
-0.183514 -0.0343657 0
-0.190348 -0.0697977 0
-0.195782 -0.106953 0
-0.199035 -0.14521 0
-0.198906 -0.18341 0
-0.193814 -0.21943 0
-0.181989 -0.249743 0
-0.161902 -0.269108 0
-0.132999 -0.27071 0
-0.0967409 -0.247325 0
-0.0577487 -0.194488 0
-0.0241438 -0.116596 0
-0.00495425 -0.0327549 0
-0.000839099 0.0361857 0
-0.00397808 0.0868293 0
-0.00968447 0.120341 0
-0.0172201 0.141772 0
-0.0258823 0.155344 0
-0.0351307 0.16395 0
-0.0446078 0.169239 0
-0.054104 0.171959 0
-0.0635092 0.1723 0
-0.0727724 0.170157 0
-0.0818744 0.16529 0
-0.0908122 0.157424 0
-0.0995921 0.146305 0
-0.108228 0.131741 0
-0.116743 0.113627 0
-0.125173 0.0919639 0
-0.133568 0.0668632 0
-0.141979 0.038542 0
-0.150438 0.00730716 0
-0.158905 -0.0264478 0
-0.167262 -0.0625255 0
-0.175209 -0.100842 0
-0.182058 -0.141219 0
-0.186586 -0.183002 0
-0.186996 -0.22452 0
-0.181046 -0.26243 0
-0.166441 -0.291113 0
-0.141606 -0.302442 0
-0.106926 -0.286532 0
-0.0663933 -0.234807 0
-0.0288656 -0.14741 0
-0.00614327 -0.0438524 0
-0.000597132 0.0376219 0
-0.00300317 0.0909381 0
-0.00760838 0.126544 0
-0.0138539 0.149351 0
-0.0210921 0.163666 0
-0.0287781 0.172562 0
-0.0365366 0.177862 0
-0.0441483 0.180443 0
-0.0515097 0.180582 0
-0.0585929 0.178222 0
-0.0654154 0.17315 0
-0.072022 0.165108 0
-0.0784754 0.153854 0
-0.0848538 0.139207 0
-0.0912532 0.121076 0
-0.0977912 0.0994832 0
-0.104611 0.0745583 0
-0.111879 0.0465258 0
-0.11976 0.0156638 0
-0.12836 -0.017738 0
-0.137708 -0.0535301 0
-0.147679 -0.0919192 0
-0.157753 -0.133219 0
-0.166802 -0.177424 0
-0.172952 -0.223538 0
-0.173605 -0.26871 0
-0.165743 -0.307299 0
-0.14668 -0.330153 0
-0.115434 -0.324747 0
-0.074859 -0.2777 0
-0.0340015 -0.182902 0
-0.00754437 -0.05754 0
-0.000376952 0.038596 0
-0.00209061 0.0940837 0
-0.00560609 0.131519 0
-0.0105162 0.155531 0
-0.016227 0.170435 0
-0.0221988 0.179452 0
-0.0280482 0.18458 0
-0.0335561 0.186844 0
-0.0386342 0.186621 0
-0.0432849 0.183917 0
-0.0475688 0.178561 0
-0.0515836 0.170319 0
-0.0554515 0.158965 0
-0.0593158 0.144338 0
-0.0633412 0.126369 0
-0.0677166 0.105104 0
-0.072661 0.0807021 0
-0.0784262 0.0534148 0
-0.085289 0.0235193 0
-0.0935126 -0.00877022 0
-0.103277 -0.0433847 0
-0.11462 -0.0807511 0
-0.127259 -0.121675 0
-0.140295 -0.166884 0
-0.151956 -0.216266 0
-0.159478 -0.267807 0
-0.159259 -0.316282 0
-0.147504 -0.351988 0
-0.12163 -0.360032 0
-0.0828064 -0.321813 0
-0.039529 -0.222924 0
-0.00920996 -0.0742944 0
-0.000205776 0.0391787 0
-0.00134534 0.0963542 0
-0.00388307 0.135302 0
-0.00750209 0.160277 0
-0.0116517 0.175549 0
-0.0158102 0.184468 0
-0.019606 0.18921 0
-0.0228379 0.190955 0
-0.0254468 0.190197 0
-0.0274764 0.187021 0
-0.0290388 0.181304 0
-0.0302896 0.172842 0
-0.0314137 0.161434 0
-0.0326201 0.14694 0
-0.0341404 0.129313 0
-0.0362282 0.108623 0
-0.0391627 0.0850615 0
-0.0432538 0.0589117 0
-0.0488452 0.0304767 0
-0.0563012 -4.80241e-05 0
-0.0659274 -0.032716 0
-0.0779199 -0.0680845 0
-0.0922526 -0.107369 0
-0.108364 -0.152042 0
-0.124796 -0.203016 0
-0.138887 -0.259446 0
-0.146705 -0.317044 0
-0.143475 -0.366212 0
-0.124879 -0.390279 0
-0.0898615 -0.365407 0
-0.0454328 -0.267036 0
-0.0112147 -0.094719 0
-0.000116435 0.0395009 0
-0.000893697 0.0979488 0
-0.00268384 0.138035 0
-0.00515521 0.163635 0
-0.00777735 0.178964 0
-0.0100668 0.187501 0
-0.0116964 0.191602 0
-0.0125116 0.19261 0
-0.012504 0.191143 0
-0.011773 0.187373 0
-0.0104919 0.181233 0
-0.00887965 0.172551 0
-0.00718579 0.161155 0
-0.00568581 0.146926 0
-0.00467731 0.129839 0
-0.00447519 0.109983 0
-0.00540945 0.0875704 0
-0.0078247 0.062909 0
-0.0120831 0.0363292 0
-0.0185681 0.00804054 0
-0.0276479 -0.0220986 0
-0.0396266 -0.0547306 0
-0.0546973 -0.0913198 0
-0.0726979 -0.133979 0
-0.0926828 -0.184662 0
-0.112421 -0.243971 0
-0.128034 -0.309089 0
-0.134072 -0.371358 0
-0.124506 -0.413294 0
-0.0955694 -0.406346 0
-0.0516768 -0.314418 0
-0.0136492 -0.119583 0
-0.000152798 0.0397702 0
-0.000898143 0.0992022 0
-0.00230886 0.139983 0
-0.00387729 0.165727 0
-0.00506034 0.180677 0
-0.00544678 0.188464 0
-0.00480406 0.191626 0
-0.00306758 0.191665 0
-0.000309117 0.189322 0
0.00329692 0.184858 0
0.00750586 0.178259 0
0.012028 0.169391 0
0.0165425 0.158107 0
0.0207068 0.14431 0
0.0241627 0.127991 0
0.0265428 0.109249 0
0.0274794 0.0883021 0
0.0266143 0.0654577 0
0.0236077 0.0410456 0
0.0181363 0.0152805 0
0.0098598 -0.0119823 0
-0.00156783 -0.0414406 0
-0.0164829 -0.0746241 0
-0.0350768 -0.11408 0
-0.0570418 -0.16261 0
-0.0809131 -0.222412 0
-0.103356 -0.292592 0
-0.118774 -0.3664 0
-0.119693 -0.4269 0
-0.0992922 -0.442079 0
-0.0581336 -0.363737 0
-0.0165965 -0.149829 0
-0.000381713 0.0403047 0
-0.00158737 0.100619 0
-0.00314599 0.141536 0
-0.00414502 0.166742 0
-0.00399927 0.180699 0
-0.00243038 0.187259 0
0.000627163 0.189131 0
0.0050896 0.187961 0
0.0107559 0.184601 0
0.0173474 0.179381 0
0.0245396 0.172334 0
0.0319744 0.163359 0
0.0392685 0.15233 0
0.0460226 0.139168 0
0.0518291 0.12387 0
0.056281 0.106537 0
0.0589862 0.0873722 0
0.059583 0.0666558 0
0.0577555 0.0446816 0
0.0532363 0.021635 0
0.0457824 -0.00260639 0
0.035146 -0.0287525 0
0.0210452 -0.0582962 0
0.00306425 -0.093833 0
-0.0191802 -0.138648 0
-0.0452195 -0.196464 0
-0.0727996 -0.268516 0
-0.0969283 -0.350929 0
-0.109316 -0.429064 0
-0.100032 -0.469599 0
-0.0644493 -0.412958 0
-0.0200844 -0.186509 0
-0.000916649 0.041603 0
-0.00330991 0.102919 0
-0.00571663 0.1432 0
-0.00652325 0.166882 0
-0.0051136 0.179003 0
-0.00145308 0.183725 0
0.00424317 0.18391 0
0.0116563 0.181306 0
0.020412 0.176834 0
0.0301127 0.170856 0
0.0403503 0.163429 0
0.0507052 0.154474 0
0.0607465 0.14388 0
0.0700366 0.131574 0
0.0781387 0.117556 0
0.0846284 0.101911 0
0.0891093 0.0848128 0
0.0912328 0.0664949 0
0.0907146 0.0471884 0
0.0873409 0.0270211 0
0.0809486 0.00585377 0
0.0713558 -0.0169835 0
0.0583058 -0.0429144 0
0.0414185 -0.0743465 0
0.0202035 -0.114675 0
-0.00588184 -0.168313 0
-0.0363114 -0.238658 0
-0.0675977 -0.325372 0
-0.0917349 -0.418096 0
-0.0961598 -0.485425 0
-0.0698158 -0.459058 0
-0.0239983 -0.230592 0
-0.00196002 0.0444797 0
-0.00661404 0.10709 0
-0.0107144 0.145537 0
-0.0116316 0.16627 0
-0.00885353 0.175428 0
-0.0027915 0.177578 0
0.00590414 0.175666 0
0.0165914 0.17145 0
0.0286878 0.165838 0
0.0416694 0.15917 0
0.0550531 0.151494 0
0.0683757 0.142731 0
0.0811816 0.132775 0
0.0930208 0.12155 0
0.103454 0.109044 0
0.112066 0.0953206 0
0.118478 0.0805093 0
0.122372 0.0647809 0
0.123501 0.0482919 0
0.121695 0.0310978 0
0.11684 0.0130242 0
0.108813 -0.00653412 0
0.0973715 -0.0288725 0
0.0821132 -0.0562428 0
0.0624412 -0.0918918 0
0.0375271 -0.140097 0
0.00662592 -0.205543 0
-0.0293804 -0.291195 0
-0.0645527 -0.392964 0
-0.0850383 -0.485647 0
-0.0726028 -0.497616 0
-0.027932 -0.282522 0
-0.00386716 0.0503069 0
-0.012322 0.114372 0
-0.0189343 0.148968 0
-0.0199101 0.164732 0
-0.0152492 0.169527 0
-0.00613893 0.168307 0
0.00616318 0.163939 0
0.0206226 0.15803 0
0.036435 0.151349 0
0.0529672 0.144144 0
0.0696893 0.136414 0
0.0861249 0.128054 0
0.101825 0.118947 0
0.116358 0.109006 0
0.129312 0.0982003 0
0.140306 0.0865585 0
0.149004 0.0741609 0
0.155128 0.0611116 0
0.158469 0.0474909 0
0.15889 0.0332845 0
0.1563 0.0182822 0
0.150602 0.00193325 0
0.141558 -0.0168547 0
0.128716 -0.0401604 0
0.11134 -0.0709253 0
0.0882851 -0.113095 0
0.0581075 -0.171467 0
0.0198238 -0.250981 0
-0.0243905 -0.353791 0
-0.0625381 -0.466187 0
-0.0697703 -0.522279 0
-0.0309231 -0.341377 0
-0.00720016 0.0613742 0
-0.0214216 0.125981 0
-0.0307285 0.153278 0
-0.0307105 0.161379 0
-0.0227702 0.160278 0
-0.00932045 0.154995 0
0.00763716 0.147991 0
0.0266734 0.140483 0
0.0468087 0.132949 0
0.067359 0.125463 0
0.0877989 0.117933 0
0.107683 0.110214 0
0.126608 0.102162 0
0.144192 0.0936733 0
0.160081 0.0846899 0
0.173951 0.0752045 0
0.185521 0.0652473 0
0.194561 0.0548614 0
0.200898 0.0440628 0
0.204405 0.0327839 0
0.204983 0.0207953 0
0.202503 0.00759868 0
0.19675 -0.00772347 0
0.187222 -0.0269219 0
0.172966 -0.0525312 0
0.152492 -0.0879606 0
0.123704 -0.137634 0
0.0842613 -0.207087 0
0.03326 -0.302469 0
-0.0224913 -0.42361 0
-0.0559064 -0.524209 0
-0.0309503 -0.403251 0
-0.0125623 0.0811366 0
-0.0340314 0.141909 0
-0.0437537 0.156379 0
-0.0392443 0.153751 0
-0.0248349 0.145557 0
-0.00455993 0.135992 0
0.0188818 0.126594 0
0.0438286 0.117896 0
0.0692929 0.109936 0
0.0946552 0.102563 0
0.119476 0.095573 0
0.143398 0.0887671 0
0.166106 0.0819769 0
0.187304 0.0750761 0
0.206718 0.0679842 0
0.224096 0.0606612 0
0.239222 0.0530957 0
0.251911 0.0452841 0
0.262015 0.0371988 0
0.26941 0.0287453 0
0.273966 0.0197014 0
0.275504 0.00963469 0
0.273725 -0.00222773 0
0.268042 -0.0172071 0
0.25734 -0.0372877 0
0.239766 -0.0651569 0
0.212616 -0.1045 0
0.172423 -0.160586 0
0.115861 -0.241408 0
0.0438662 -0.356925 0
-0.0216066 -0.492006 0