# vtk DataFile Version 2.0
Lid-driven cavity
ASCII
DATASET STRUCTURED_POINTS
DIMENSIONS 32 32 1
ORIGIN 0.015625 0.015625 0
SPACING 0.03125 0.03125 1
POINT_DATA 1024
SCALARS pressure double 1
LOOKUP_TABLE default
31.7942
31.6515
31.4077
31.1434
30.906
30.7192
30.5941
30.5384
30.5606
30.6716
30.8837
31.2082
31.6533
32.2207
32.9032
33.6823
34.5277
35.3978
36.2389
36.9902
37.5911
37.9904
38.1553
38.0784
37.7816
37.3143
36.7459
36.1569
35.6283
35.2314
35.0189
35.0025
31.9368
31.7882
31.586
31.3761
31.1881
31.0391
30.939
30.8959
30.9187
31.0182
31.2057
31.4922
31.8853
32.3874
32.9928
33.6858
34.4393
35.2175
35.9713
36.6455
37.1849
37.5434
37.6918
37.6253
37.3658
36.96
36.4715
35.9696
35.5217
35.1838
34.9972
34.9859
32.1893
31.978
31.7685
31.5779
31.4165
31.2896
31.2017
31.1583
31.1677
31.2407
31.3897
31.6268
31.9619
32.4003
32.9398
33.5685
34.2631
34.9904
35.7032
36.3471
36.8666
37.2144
37.3604
37.2986
37.0507
36.6632
36.1992
35.7261
35.3042
34.9826
34.7972
34.7763
32.4611
32.1614
31.9178
31.7228
31.5675
31.4449
31.3519
31.2906
31.2681
31.296
31.3887
31.5615
31.8285
32.1996
32.6779
33.2565
33.9164
34.6246
35.3344
35.989
36.5289
36.9011
37.0696
37.0236
36.7821
36.3917
35.9177
35.43
34.9906
34.6461
34.4305
34.3704
32.6698
32.2731
31.9827
31.7675
31.6006
31.4629
31.344
31.2426
31.1651
31.1244
31.1381
31.2262
31.4084
31.7014
32.1148
32.6481
33.2876
34.0003
34.7395
35.445
36.0504
36.4929
36.7253
36.7266
36.5087
36.1156
35.6152
35.0838
34.5902
34.1864
33.9083
33.7824
32.7376
32.244
31.9018
31.6556
31.4612
31.2881
31.1197
30.9518
30.7911
30.6525
30.5579
30.5331
30.6051
30.7985
31.1313
31.6114
32.2324
32.9636
33.76
34.5579
35.282
35.8558
36.2149
36.3206
36.1699
35.7986
35.2747
34.683
34.1057
33.6082
33.2357
33.0201
32.5884
32.0027
31.6075
31.3221
31.0847
30.8547
30.6103
30.3456
30.0677
29.7949
29.5538
29.3773
29.3008
29.3587
29.5796
29.9816
30.5689
31.3194
32.193
33.1246
34.0295
34.8134
35.388
35.6866
35.6802
35.386
34.8662
34.2139
33.531
32.9066
32.4064
32.077
32.1469
31.4771
31.0294
30.6967
30.4004
30.0903
29.7404
29.3436
28.9083
28.4561
28.0193
27.6384
27.3589
27.2267
27.2835
27.5613
28.0775
28.828
29.7856
30.8874
32.0403
33.1301
34.0366
34.6538
34.9109
34.7909
34.3376
33.6482
32.8497
32.0684
31.4057
30.9325
31.3413
30.5974
30.0981
29.7095
29.3368
28.9211
28.4325
27.863
27.2223
26.5354
25.8404
25.1863
24.6297
24.2306
24.0469
24.1282
24.5094
25.2134
26.2396
27.5342
28.9999
30.502
31.8827
32.9836
33.6734
33.878
33.6027
32.9363
32.0327
31.0701
30.2062
29.5532
30.1069
29.301
28.7505
28.2961
27.8274
27.2777
26.6133
25.8248
24.923
23.9355
22.9062
21.8928
20.9645
20.1976
19.6704
19.4549
19.6085
20.1845
21.2322
22.7169
24.5448
26.5643
28.5775
30.3622
31.7064
32.4503
32.5291
31.9997
31.0354
29.8797
28.7742
27.8969
28.3908
27.5368
26.9352
26.4034
25.8173
25.1028
24.222
23.1638
21.9382
20.5752
19.1234
17.6493
16.2359
14.9785
13.9795
13.3394
13.1466
13.475
14.4564
16.0903
18.298
20.9201
23.7216
26.411
28.6766
30.2411
30.9282
30.7225
29.7935
28.4573
27.0715
25.916
26.1576
25.2709
24.6178
23.9964
23.2705
22.3592
21.2201
19.8388
18.2238
16.4052
14.4355
12.3898
10.3653
8.4786
6.8598
5.64343
4.95554
4.89818
5.67775
7.37102
9.92765
13.1945
16.9111
20.7195
24.1976
26.9205
28.5517
28.945
28.2205
26.7562
25.0594
23.5629
23.3937
22.4907
21.7862
21.0633
20.1763
19.0378
17.6004
15.8452
13.7772
11.425
8.84351
6.11522
3.35183
0.692296
-1.70237
-3.6592
-5.00858
-5.60502
-5.20134
-3.58966
-0.776085
3.11202
7.80889
12.9064
17.8747
22.1218
25.1018
26.4648
26.2059
24.7257
22.7058
20.7989
20.1104
19.2085
18.4539
17.6202
16.5545
15.1638
13.3953
11.224
8.64958
5.6975
2.42277
-1.08582
-4.703
-8.26711
-11.5848
-14.4413
-16.6178
-17.9155
-18.0777
-16.732
-13.8182
-9.41514
-3.76517
2.70357
9.37607
15.4929
20.2616
23.0485
23.6195
22.3168
19.9941
17.6038
16.3454
15.462
14.6612
13.7123
12.4581
10.8009
8.68149
6.06817
2.95349
-0.642431
-4.66616
-9.02468
-13.5806
-18.1507
-22.5095
-26.3997
-29.5497
-31.6994
-32.6004
-31.7312
-28.9299
-24.2051
-17.7428
-9.94803
-1.4769
6.77194
13.7478
18.4625
20.3264
19.4921
16.9367
13.9911
12.1606
11.3128
10.4735
9.41308
7.9726
6.05006
3.58014
0.522947
-3.1374
-7.38788
-12.1786
-17.4143
-22.9478
-28.5764
-34.045
-39.0555
-43.2857
-46.4161
-48.1644
-47.9813
-45.5382
-40.7577
-33.739
-24.8144
-14.6168
-4.12328
5.38473
12.5223
16.2147
16.2445
13.5941
10.0278
7.63776
6.84132
5.97619
4.81895
3.21062
1.04547
-1.74866
-5.22064
-9.39605
-14.2704
-19.799
-25.8865
-32.3781
-39.0549
-45.6356
-51.7862
-57.1388
-61.3196
-63.9866
-64.6413
-62.7937
-58.2612
-51.0335
-41.3215
-29.659
-17.01
-4.81212
5.16049
11.2406
12.6261
10.1017
5.86289
2.8713
2.13918
1.26704
0.0414171
-1.6958
-4.05486
-7.11589
-10.9379
-15.5575
-20.9797
-27.1665
-34.0238
-41.3917
-49.038
-56.6601
-63.894
-70.3337
-75.5588
-79.171
-80.73
-79.6605
-75.669
-68.6218
-58.5719
-45.8795
-31.3848
-16.5605
-3.49801
5.48857
8.79144
6.70703
1.76508
-2.04151
-2.70046
-3.55413
-4.80322
-6.60615
-9.08049
-12.3171
-16.3871
-21.3393
-27.1896
-33.9071
-41.4003
-49.5056
-57.9808
-66.5062
-74.6944
-82.1106
-88.3
-92.8214
-95.2643
-95.062
-91.8414
-85.3393
-75.4367
-62.2625
-46.4209
-29.2662
-13.0669
-0.758888
5.05585
3.8237
-1.82019
-7.0112
-7.59427
-8.3967
-9.60512
-11.3828
-13.861
-17.1466
-21.3266
-26.464
-32.586
-39.6691
-47.6247
-56.2864
-65.4039
-74.6445
-83.6038
-91.8267
-98.8371
-104.17
-107.403
-108.056
-105.725
-100.041
-90.7156
-77.6214
-61.0353
-42.0299
-22.855
-6.95055
1.97167
2.10771
-4.1858
-11.9679
-12.4806
-13.1907
-14.2716
-15.9014
-18.2371
-21.4111
-25.5321
-30.6797
-36.8927
-44.1543
-52.3774
-61.3931
-70.9444
-80.6883
-90.2081
-99.0359
-106.684
-112.676
-116.58
-117.991
-116.531
-111.792
-103.332
-90.7753
-74.021
-53.7158
-31.8657
-12.209
0.418534
2.56679
-4.23385
-16.8735
-17.3322
-17.8979
-18.736
-20.0583
-22.0684
-24.9392
-28.8088
-33.7764
-39.8917
-47.1417
-55.4377
-64.6074
-74.3875
-84.4275
-94.302
-103.535
-111.632
-118.117
-122.555
-124.575
-123.859
-120.019
-112.509
-100.737
-84.2187
-63.0751
-38.8469
-15.3009
1.70104
6.70783
-0.287296
-21.7371
-22.1706
-22.5218
-22.9631
-23.7742
-25.2375
-27.5873
-31.0005
-35.5984
-41.4375
-48.5059
-56.712
-65.8742
-75.7194
-85.8872
-95.9447
-105.411
-113.789
-120.604
-125.43
-127.898
-127.726
-124.576
-117.876
-106.856
-90.6786
-68.8946
-42.388
-14.6478
7.63766
16.7195
10.1672
-26.6364
-27.0862
-27.119
-26.9521
-26.9921
-27.6488
-29.2429
-32.0043
-36.0717
-41.5028
-48.2763
-56.2863
-65.3366
-75.1398
-85.3239
-95.4472
-105.024
-113.557
-120.572
-125.646
-128.416
-128.568
-125.747
-119.462
-108.864
-92.7534
-70.1199
-41.0329
-8.3804
20.6172
35.671
30.804
-31.7595
-32.2716
-31.8133
-30.7356
-29.6715
-29.2244
-29.8294
-31.761
-35.1692
-40.1003
-46.5114
-54.2717
-63.162
-72.8756
-83.0255
-93.1604
-102.789
-111.411
-118.549
-123.776
-126.723
-127.046
-124.284
-117.85
-106.853
-90.0803
-65.9003
-33.3659
5.57643
43.5946
67.6894
66.8357
-37.4955
-38.0873
-36.8201
-34.3777
-31.7767
-29.8874
-29.2761
-30.2371
-32.91
-37.3083
-43.3496
-50.8655
-59.6052
-69.2373
-79.3573
-89.5025
-99.1746
-107.867
-115.093
-120.41
-123.419
-123.754
-120.824
-113.837
-101.709
-82.8832
-55.5465
-18.024
29.4206
79.9977
118.057
125.427
-44.6462
-45.1942
-42.489
-37.9695
-33.2653
-29.5659
-27.5415
-27.4532
-29.3849
-33.2852
-39.0103
-46.3414
-54.9877
-64.5893
-74.7223
-84.9118
-94.6505
-103.422
-110.724
-116.083
-119.053
-119.201
-115.882
-107.931
-93.9333
-71.8687
-39.2263
6.35474
65.419
133.509
193.135
216.134
-54.9418
-54.8173
-49.3533
-41.596
-34.0519
-28.1745
-24.6072
-23.4779
-24.7445
-28.2493
-33.7654
-41.0115
-49.6523
-59.2973
-69.503
-79.7819
-89.6173
-98.4806
-105.846
-111.2
-114.028
-113.785
-109.805
-100.445
-83.798
-57.226
-17.2996
39.6046
115.651
207.638
299.928
351.38
-72.3305
-69.1652
-58.0514
-45.1453
-33.8526
-25.5049
-20.3935
-18.3508
-19.1227
-22.4013
-27.8588
-35.1457
-43.882
-53.6479
-63.9822
-74.3867
-84.3356
-93.2869
-100.689
-105.979
-108.559
-107.753
-102.718
-91.4954
-71.4236
-39.1101
9.99999
81.2273
179.375
305.086
444.799
546.917
-106.206
-91.4252
-68.3776
-47.4696
-31.6353
-20.8173
-14.4135
-11.799
-12.4018
-15.7295
-21.3465
-28.84
-37.7924
-47.7627
-58.2784
-68.8355
-78.9025
-87.9257
-95.3276
-100.492
-102.728
-101.198
-94.8044
-81.2512
-57.16
-18.3196
41.0806
128.526
252.901
422.613
634.309
821.504
-178.209
-120.985
-74.8335
-43.5608
-23.577
-11.4626
-4.98319
-2.76345
-3.91542
-7.81313
-13.9634
-21.9296
-31.2855
-41.5904
-52.3763
-63.1443
-73.366
-82.4822
-89.8941
-94.9376
-96.8289
-94.5655
-86.7635
-70.7369
-42.7754
2.03477
70.6331
172.836
323.154
544.915
872.4
1266.83
-356.382
-130.114
-50.5869
-17.6051
-1.44632
6.79513
10.2009
10.0828
7.14734
1.87029
-5.36142
-14.1848
-24.2268
-35.0858
-46.3243
-57.4666
-68.0001
-77.372
-84.9773
-90.1262
-91.9789
-89.4221
-80.8266
-63.4711
-33.5951
14.0152
86.8275
196.084
360.926
622.017
1089.1
2048.99
VECTORS velocity double
8.30446e-05 -8.30446e-05 0
0.000169294 -3.20433e-06 0
3.48925e-05 0.000137605 0
-0.000369254 0.000266541 0
-0.00100149 0.000365698 0
-0.00180539 0.000438201 0
-0.00273518 0.00049159 0
-0.00375789 0.000531113 0
-0.00484708 0.000558076 0
-0.00597558 0.000570426 0
-0.00711005 0.000564041 0
-0.00820814 0.000534051 0
-0.00921815 0.00047596 0
-0.0100807 0.000386597 0
-0.0107322 0.000264948 0
-0.0111101 0.000112877 0
-0.0111586 -6.43912e-05 0
-0.0108359 -0.000258286 0
-0.0101229 -0.000454743 0
-0.00903218 -0.000635938 0
-0.00761409 -0.000782146 0
-0.00595759 -0.000874359 0
-0.00418569 -0.000897541 0
-0.00244414 -0.000844007 0
-0.000883992 -0.00071614 0
0.000359718 -0.000527571 0
0.00118975 -0.000302463 0
0.00156353 -7.13128e-05 0
0.0015041 0.000130743 0
0.00110854 0.000264814 0
0.000559826 0.0002839 0
0.000137963 0.000137963 0
-3.33965e-07 -0.000165755 0
-0.000249361 0.000242284 0
-0.00105698 0.000834136 0
-0.00245898 0.00137616 0
-0.00437426 0.0018036 0
-0.00669261 0.00212254 0
-0.0093118 0.00235624 0
-0.0121437 0.00252108 0
-0.0151063 0.00261987 0
-0.0181127 0.00264359 0
-0.0210636 0.00257618 0
-0.0238432 0.00239966 0
-0.0263215 0.00209867 0
-0.0283592 0.00166415 0
-0.0298167 0.00109639 0
-0.0305649 0.000407475 0
-0.0304982 -0.000377163 0
-0.0295487 -0.0012177 0
-0.0277004 -0.00205663 0
-0.0250017 -0.00282352 0
-0.0215726 -0.00344173 0
-0.0176062 -0.00383767 0
-0.0133599 -0.0039524 0
-0.00913667 -0.00375396 0
-0.00525492 -0.00324809 0
-0.00200988 -0.00248438 0
0.000369858 -0.00155542 0
0.00176494 -0.000587215 0
0.00219663 0.000274388 0
0.00184274 0.000870611 0
0.00104125 0.00102831 0
0.000290374 0.0005663 0
-0.000181334 1.59122e-05 0
-0.00100609 0.0011344 0
-0.0027446 0.00248815 0
-0.00532193 0.00370148 0
-0.00859411 0.00466575 0
-0.0124063 0.00539095 0
-0.0166157 0.00591635 0
-0.0210907 0.00626791 0
-0.0257013 0.00644618 0
-0.0303076 0.00643012 0
-0.034754 0.00618687 0
-0.0388678 0.00568242 0
-0.0424643 0.00489066 0
-0.0453552 0.00380072 0
-0.0473605 0.00242259 0
-0.0483222 0.000791196 0
-0.0481187 -0.00103106 0
-0.0466798 -0.00295222 0
-0.0439999 -0.0048502 0
-0.0401497 -0.00657901 0
-0.0352841 -0.00798089 0
-0.0296454 -0.0089036 0
-0.0235561 -0.00922198 0
-0.0174016 -0.00886214 0
-0.0115987 -0.0078246 0
-0.00655079 -0.0062008 0
-0.00259269 -0.00417683 0
6.7618e-05 -0.0020212 0
0.00140075 -5.64458e-05 0
0.00158779 0.0013683 0
0.00102207 0.00189782 0
0.000306533 0.00116321 0
-0.000400378 0.000597624 0
-0.00191301 0.00289008 0
-0.00472674 0.00528472 0
-0.00859368 0.00734917 0
-0.0132774 0.008974 0
-0.0185724 0.0101899 0
-0.0243002 0.0110546 0
-0.0302955 0.0116 0
-0.0363906 0.0118198 0
-0.0424052 0.0116774 0
-0.048142 0.0111228 0
-0.0533898 0.0101081 0
-0.0579301 0.0086018 0
-0.0615485 0.00659881 0
-0.0640464 0.0041278 0
-0.065255 0.00125621 0
-0.0650476 -0.00190697 0
-0.0633518 -0.00521103 0
-0.060159 -0.00846402 0
-0.055537 -0.0114374 0
-0.049642 -0.013883 0
-0.0427255 -0.0155567 0
-0.0351338 -0.0162499 0
-0.027296 -0.0158265 0
-0.0196975 -0.0142617 0
-0.0128342 -0.0116748 0
-0.0071496 -0.00834553 0
-0.00295997 -0.00470244 0
-0.000384836 -0.00128348 0
0.000703154 0.0013203 0
0.000697263 0.00251742 0
0.000243337 0.00171308 0
-0.000634121 0.00163212 0
-0.00288104 0.00561513 0
-0.00683164 0.009324 0
-0.0120335 0.0123787 0
-0.0181395 0.0147343 0
-0.0248875 0.0164726 0
-0.0320667 0.0176788 0
-0.0394859 0.0183902 0
-0.0469514 0.0185903 0
-0.0542562 0.0182262 0
-0.0611775 0.0172322 0
-0.0674821 0.0155509 0
-0.072934 0.0131513 0
-0.0773063 0.01004 0
-0.0803914 0.00626971 0
-0.0820127 0.00194408 0
-0.0820345 -0.00278038 0
-0.0803691 -0.0076989 0
-0.0769838 -0.0125542 0
-0.0719175 -0.0170356 0
-0.0652981 -0.0207993 0
-0.0573569 -0.0234981 0
-0.0484367 -0.0248205 0
-0.038989 -0.0245414 0
-0.0295553 -0.022579 0
-0.0207251 -0.0190508 0
-0.0130678 -0.0143114 0
-0.00704146 -0.00895258 0
-0.00289625 -0.00375369 0
-0.000600212 0.000406489 0
0.000195715 0.00264119 0
0.000141263 0.00209768 0
-0.000870601 0.00313685 0
-0.00385732 0.00934404 0
-0.00894441 0.0146328 0
-0.0154651 0.0187924 0
-0.0229567 0.0219181 0
-0.0311006 0.0241807 0
-0.0396578 0.0257071 0
-0.0484194 0.0265427 0
-0.0571769 0.026661 0
-0.06571 0.0259934 0
-0.0737844 0.0244607 0
-0.0811574 0.0219999 0
-0.0875861 0.0185831 0
-0.0928364 0.0142308 0
-0.096692 0.0090196 0
-0.0989628 0.00308621 0
-0.0994922 -0.00337126 0
-0.0981613 -0.0101044 0
-0.0948946 -0.0168006 0
-0.0896798 -0.0230703 0
-0.0825934 -0.0284705 0
-0.073823 -0.0325384 0
-0.0636855 -0.0348378 0
-0.0526361 -0.0350212 0
-0.0412619 -0.0329073 0
-0.030249 -0.0285658 0
-0.0203136 -0.0223891 0
-0.012096 -0.0151189 0
-0.00603007 -0.00779848 0
-0.00222835 -0.00164647 0
-0.000422936 0.00209282 0
1.93144e-05 0.00225825 0
-0.00110009 0.00510754 0
-0.00479935 0.0140593 0
-0.010972 0.0211772 0
-0.0187431 0.0265398 0
-0.0275401 0.0304594 0
-0.0369933 0.0332365 0
-0.0468416 0.0350569 0
-0.056867 0.0359798 0
-0.0668563 0.0359708 0
-0.0765869 0.0349472 0
-0.0858235 0.0328179 0
-0.0943228 0.0295149 0
-0.101839 0.0250132 0
-0.108132 0.0193437 0
-0.112971 0.0126013 0
-0.116143 0.00494754 0
-0.117459 -0.00338763 0
-0.116756 -0.0121218 0
-0.113904 -0.0209016 0
-0.108825 -0.0292633 0
-0.101526 -0.0366629 0
-0.0921306 -0.0425116 0
-0.080907 -0.0462257 0
-0.0682906 -0.0472991 0
-0.0548948 -0.0453994 0
-0.0414949 -0.0404865 0
-0.0289684 -0.0329301 0
-0.0181782 -0.0235857 0
-0.0098055 -0.0137704 0
-0.0041755 -0.00510629 0
-0.00114834 0.000720062 0
-0.000118575 0.00215899 0
-0.00131241 0.00752004 0
-0.00566594 0.0196996 0
-0.0128287 0.0288724 0
-0.0217359 0.0355229 0
-0.0317179 0.0402552 0
-0.0423627 0.0435386 0
-0.0533948 0.0456352 0
-0.0645939 0.0466258 0
-0.075751 0.0464712 0
-0.0866494 0.0450757 0
-0.0970601 0.0423367 0
-0.106744 0.0381788 0
-0.115453 0.0325751 0
-0.122938 0.02556 0
-0.128951 0.0172366 0
-0.133247 0.00778078 0
-0.135596 -0.00255693 0
-0.135786 -0.0134651 0
-0.133629 -0.0245668 0
-0.128974 -0.0353329 0
-0.121745 -0.0451204 0
-0.111986 -0.0532088 0
-0.0998883 -0.0588497 0
-0.0858369 -0.061343 0
-0.0704388 -0.0601494 0
-0.0545336 -0.0550416 0
-0.0391558 -0.0462793 0
-0.0254219 -0.0347606 0
-0.014329 -0.022061 0
-0.00650384 -0.0102708 0
-0.00200401 -0.0016424 0
-0.000276368 0.00176405 0
-0.00149667 0.0103291 0
-0.00641553 0.026163 0
-0.0144315 0.0375878 0
-0.0243187 0.0456018 0
-0.0353274 0.051167 0
-0.0470127 0.0549569 0
-0.0590912 0.0573274 0
-0.0713469 0.0583884 0
-0.0835806 0.0580995 0
-0.0955875 0.0563527 0
-0.107149 0.0530319 0
-0.118032 0.0480499 0
-0.127988 0.0413702 0
-0.136759 0.0330208 0
-0.144072 0.0231019 0
-0.149653 0.0117926 0
-0.153227 -0.000646461 0
-0.154536 -0.0138768 0
-0.153334 -0.0275139 0
-0.149398 -0.040977 0
-0.142569 -0.0535341 0
-0.132787 -0.0643363 0
-0.120145 -0.072462 0
-0.104936 -0.0769907 0
-0.0877147 -0.0771211 0
-0.0693381 -0.0723518 0
-0.0509674 -0.0627176 0
-0.0339801 -0.0490434 0
-0.0197516 -0.0330996 0
-0.00931702 -0.017492 0
-0.00303797 -0.00520006 0
-0.000465792 0.00102189 0
-0.00164181 0.0134676 0
-0.00700741 0.0333089 0
-0.0157016 0.047152 0
-0.0263741 0.0565973 0
-0.0382136 0.0630197 0
-0.0507513 0.0673272 0
-0.0637006 0.0699849 0
-0.0768537 0.0711397 0
-0.0900249 0.0707531 0
-0.103024 0.0687053 0
-0.115647 0.0648633 0
-0.127668 0.059122 0
-0.13884 0.0514272 0
-0.148896 0.0417899 0
-0.157546 0.0302969 0
-0.164488 0.0171196 0
-0.169408 0.00252122 0
-0.172006 -0.0131385 0
-0.171988 -0.0294717 0
-0.169072 -0.0458705 0
-0.16301 -0.0615328 0
-0.153633 -0.0754963 0
-0.140904 -0.0866728 0
-0.124985 -0.0939074 0
-0.106318 -0.0960929 0
-0.0857098 -0.0923649 0
-0.0643874 -0.0823975 0
-0.0439623 -0.066776 0
-0.0262265 -0.0473315 0
-0.0127388 -0.0271824 0
-0.00431236 -0.0102152 0
-0.000701781 -0.000145685 0
-0.00173761 0.016847 0
-0.00740446 0.040962 0
-0.0165675 0.0573562 0
-0.0277956 0.0682937 0
-0.0402344 0.0756016 0
-0.0533974 0.0804461 0
-0.0669975 0.0834154 0
-0.0808361 0.084701 0
-0.0947427 0.0842697 0
-0.108544 0.0819896 0
-0.122051 0.0777081 0
-0.135049 0.0712963 0
-0.147298 0.0626746 0
-0.158528 0.0518286 0
-0.168442 0.0388222 0
-0.176717 0.0238107 0
-0.183018 0.00705178 0
-0.187005 -0.0110848 0
-0.188354 -0.0301937 0
-0.186741 -0.0496775 0
-0.181837 -0.0686926 0
-0.173358 -0.0861924 0
-0.161119 -0.100945 0
-0.145105 -0.111568 0
-0.125582 -0.116623 0
-0.103222 -0.114803 0
-0.0792276 -0.105276 0
-0.0553728 -0.088177 0
-0.0338639 -0.0651752 0
-0.0168877 -0.0398025 0
-0.00589365 -0.0170156 0
-0.00100102 -0.00184849 0
-0.00177576 0.0203604 0
-0.00757659 0.0489163 0
-0.0169713 0.0679597 0
-0.0284956 0.0804426 0
-0.0412695 0.0886653 0
-0.0547932 0.0940691 0
-0.0687783 0.0973774 0
-0.0830346 0.0988339 0
-0.0974062 0.0984149 0
-0.111737 0.095977 0
-0.125856 0.0913458 0
-0.139564 0.0843653 0
-0.152634 0.074925 0
-0.164806 0.0629795 0
-0.175785 0.0485638 0
-0.18525 0.0318098 0
-0.192858 0.0129611 0
-0.19825 -0.00761536 0
-0.201087 -0.0294765 0
-0.201019 -0.0520755 0
-0.197654 -0.0745639 0
-0.1906 -0.0958537 0
-0.17951 -0.114613 0
-0.164161 -0.129264 0
-0.144575 -0.138036 0
-0.121197 -0.139128 0
-0.095084 -0.131059 0
-0.0680615 -0.113271 0
-0.0426909 -0.0869602 0
-0.0218539 -0.0558307 0
-0.00784449 -0.0259908 0
-0.00138049 -0.00423 0
-0.00175097 0.0238871 0
-0.00750435 0.0569438 0
-0.0168745 0.0786972 0
-0.0284139 0.0927687 0
-0.0412332 0.101932 0
-0.054821 0.107914 0
-0.0688847 0.111582 0
-0.0832394 0.113241 0
-0.097742 0.112882 0
-0.112254 0.110353 0
-0.126623 0.105458 0
-0.140674 0.098012 0
-0.154199 0.0878734 0
-0.16696 0.0749632 0
-0.178685 0.0592849 0
-0.189074 0.0409428 0
-0.197798 0.0201596 0
-0.20451 -0.00271009 0
-0.208868 -0.0271864 0
-0.210512 -0.0527892 0
-0.209017 -0.0787099 0
-0.203902 -0.103876 0
-0.19466 -0.126921 0
-0.180833 -0.146132 0
-0.162146 -0.159441 0
-0.138717 -0.164531 0
-0.111326 -0.159159 0
-0.0816963 -0.141824 0
-0.052621 -0.112853 0
-0.0276804 -0.0757151 0
-0.0102177 -0.0375785 0
-0.00185675 -0.00746723 0
-0.00166202 0.0273001 0
-0.00718229 0.0648044 0
-0.0162642 0.0892887 0
-0.0275266 0.104979 0
-0.0400864 0.115101 0
-0.0534202 0.121666 0
-0.0672267 0.125699 0
-0.081322 0.127574 0
-0.0955726 0.127303 0
-0.109857 0.124729 0
-0.124046 0.11964 0
-0.13799 0.111824 0
-0.151514 0.10111 0
-0.164415 0.0873886 0
-0.176463 0.0706329 0
-0.187398 0.050919 0
-0.196936 0.0284445 0
-0.204764 0.00354497 0
-0.210556 -0.023291 0
-0.213967 -0.0516289 0
-0.214579 -0.0807531 0
-0.21185 -0.109678 0
-0.205129 -0.137083 0
-0.193717 -0.16121 0
-0.176999 -0.179768 0
-0.15468 -0.189952 0
-0.127123 -0.188685 0
-0.0957605 -0.173291 0
-0.0634368 -0.142786 0
-0.0343485 -0.0998113 0
-0.0130506 -0.0522429 0
-0.00244516 -0.0117691 0
-0.00151238 0.0304745 0
-0.00662147 0.0722594 0
-0.0151578 0.099452 0
-0.0258539 0.116774 0
-0.0378471 0.127859 0
-0.0506017 0.134997 0
-0.0638021 0.139375 0
-0.0772602 0.14145 0
-0.0908492 0.141265 0
-0.104464 0.138666 0
-0.118001 0.133428 0
-0.131341 0.12532 0
-0.14435 0.114147 0
-0.156874 0.0997768 0
-0.168739 0.0821575 0
-0.17975 0.061341 0
-0.189689 0.0374986 0
-0.198308 0.0109376 0
-0.205317 -0.0178821 0
-0.21042 -0.0485233 0
-0.213244 -0.0804233 0
-0.213225 -0.112755 0
-0.209606 -0.144345 0
-0.20146 -0.173505 0
-0.187812 -0.197838 0
-0.167885 -0.214129 0
-0.141491 -0.218459 0
-0.109576 -0.206794 0
-0.0747899 -0.176392 0
-0.0417691 -0.128314 0
-0.0163615 -0.0704454 0
-0.00315966 -0.017374 0
-0.0013106 0.0332975 0
-0.00585082 0.0790857 0
-0.0136065 0.108918 0
-0.0234649 0.127863 0
-0.0345978 0.139896 0
-0.0464569 0.147573 0
-0.0587077 0.152251 0
-0.0711528 0.154478 0
-0.0836698 0.154343 0
-0.0961701 0.151704 0
-0.108575 0.146332 0
-0.120804 0.137985 0
-0.132768 0.126456 0
-0.14437 0.111595 0
-0.155504 0.0933383 0
-0.166054 0.0717214 0
-0.175891 0.0468937 0
-0.184858 0.0191278 0
-0.19275 -0.0111712 0
-0.19934 -0.0435404 0
-0.204323 -0.0776 0
-0.207169 -0.11275 0
-0.207066 -0.148072 0
-0.202904 -0.182087 0
-0.193361 -0.212448 0
-0.177136 -0.235671 0
-0.153381 -0.247064 0
-0.122348 -0.241136 0
-0.086216 -0.212969 0
-0.0497821 -0.161192 0
-0.0201481 -0.0926089 0
-0.00401344 -0.0245471 0
-0.00107008 0.0356782 0
-0.00491721 0.0850924 0
-0.0116956 0.117445 0
-0.020479 0.137977 0
-0.0304869 0.150923 0
-0.0411597 0.159078 0
-0.0521409 0.163977 0
-0.0632209 0.166277 0
-0.0742796 0.166121 0
-0.0852454 0.163393 0
-0.0960687 0.157871 0
-0.106709 0.149314 0
-0.117127 0.137509 0
-0.127286 0.122303 0
-0.137154 0.103631 0
-0.1467 0.0815248 0
-0.155896 0.0561229 0
-0.164701 0.0276701 0
-0.173036 -0.00348606 0
-0.18077 -0.0369015 0
-0.187678 -0.0723478 0
-0.193327 -0.109507 0
-0.196921 -0.147823 0
-0.197238 -0.186181 0
-0.192658 -0.222478 0
-0.18136 -0.253164 0
-0.161757 -0.27293 0
-0.133225 -0.274834 0
-0.0971645 -0.251464 0
-0.0581646 -0.198131 0
-0.0243907 -0.119078 0
-0.00502117 -0.0335817 0
-0.000808587 0.0375568 0
-0.0038843 0.0901366 0
-0.00954401 0.124839 0
-0.0170655 0.146888 0
-0.0257273 0.160682 0
-0.0349625 0.169228 0
-0.0443928 0.17424 0
-0.0537955 0.176497 0
-0.0630543 0.176218 0
-0.0721166 0.173324 0
-0.0809652 0.167612 0
-0.0896023 0.15885 0
-0.0980427 0.146831 0
-0.106312 0.13141 0
-0.114449 0.11253 0
-0.122511 0.0902342 0
-0.130569 0.064668 0
-0.138704 0.0360648 0
-0.146976 0.00472647 0
-0.155373 -0.0289837 0
-0.163796 -0.0649343 0
-0.17195 -0.103118 0
-0.179139 -0.143429 0
-0.184124 -0.185274 0
-0.185078 -0.227011 0
-0.179719 -0.265289 0
-0.165695 -0.294433 0
-0.141364 -0.306194 0
-0.107035 -0.290494 0
-0.0666458 -0.23849 0
-0.0290594 -0.150079 0
-0.00620356 -0.0448064 0
-0.000547492 0.0389129 0
-0.00283082 0.0941395 0
-0.00730187 0.130967 0
-0.0134403 0.15442 0
-0.020591 0.168962 0
-0.028187 0.177779 0
-0.0358329 0.182765 0
-0.0432972 0.184839 0
-0.0504708 0.184308 0
-0.0573252 0.18115 0
-0.0638806 0.17519 0
-0.0701867 0.166216 0
-0.076314 0.154033 0
-0.0823509 0.138514 0
-0.0884059 0.119618 0
-0.0946119 0.0974132 0
-0.101131 0.072066 0
-0.108149 0.0438207 0
-0.115859 0.0129517 0
-0.124388 -0.0202819 0
-0.133787 -0.0558144 0
-0.143935 -0.0939365 0
-0.15431 -0.135046 0
-0.163779 -0.179203 0
-0.170451 -0.225455 0
-0.171699 -0.270957 0
-0.164461 -0.310026 0
-0.145986 -0.333406 0
-0.115215 -0.328381 0
-0.0749237 -0.281284 0
-0.034126 -0.18567 0
-0.00759394 -0.0586039 0
-0.000311221 0.0397716 0
-0.00184928 0.0971022 0
-0.00514893 0.135775 0
-0.0098629 0.160465 0
-0.0154031 0.175608 0
-0.0212129 0.184538 0
-0.0268913 0.18933 0
-0.0322076 0.191055 0
-0.0370693 0.190128 0
-0.0414794 0.186595 0
-0.0455019 0.180323 0
-0.0492394 0.171126 0
-0.0528215 0.158832 0
-0.0563998 0.14333 0
-0.0601483 0.124605 0
-0.0642664 0.10275 0
-0.0689844 0.0779655 0
-0.0745677 0.0505231 0
-0.0813076 0.0206984 0
-0.0894789 -0.0113275 0
-0.0992773 -0.0455714 0
-0.110753 -0.0825563 0
-0.123628 -0.123176 0
-0.137005 -0.168228 0
-0.14911 -0.217652 0
-0.15717 -0.269452 0
-0.157556 -0.318383 0
-0.146418 -0.354661 0
-0.121098 -0.363218 0
-0.0826745 -0.325163 0
-0.0395728 -0.22569 0
-0.0092451 -0.0754429 0
-0.000127438 0.0402103 0
-0.00104679 0.099121 0
-0.00329545 0.139304 0
-0.00663552 0.164989 0
-0.0105359 0.180524 0
-0.0144654 0.189361 0
-0.0180376 0.193757 0
-0.0210413 0.194948 0
-0.0234147 0.19347 0
-0.025204 0.189452 0
-0.0265251 0.18281 0
-0.0275386 0.173391 0
-0.0284364 0.161047 0
-0.0294351 0.145692 0
-0.0307722 0.127329 0
-0.0327066 0.106079 0
-0.0355214 0.0821701 0
-0.0395293 0.0559097 0
-0.0450757 0.0275982 0
-0.0525267 -0.00260503 0
-0.0621937 -0.0348287 0
-0.0742809 -0.069736 0
-0.0887702 -0.108632 0
-0.105115 -0.153051 0
-0.121873 -0.203966 0
-0.136392 -0.26056 0
-0.144735 -0.318547 0
-0.142093 -0.368277 0
-0.124079 -0.392936 0
-0.0895412 -0.368407 0
-0.0453905 -0.269699 0
-0.0112323 -0.0959204 0
-2.90016e-05 0.0403667 0
-0.000550643 0.100406 0
-0.00198897 0.141707 0
-0.00410652 0.168045 0
-0.00640626 0.183669 0
-0.00840402 0.192144 0
-0.00976125 0.195904 0
-0.0103151 0.196358 0
-0.0100572 0.194176 0
-0.00909248 0.189571 0
-0.00759836 0.182517 0
-0.00579819 0.172896 0
-0.00394886 0.16059 0
-0.00233246 0.145531 0
-0.00124954 0.127744 0
-0.0010153 0.107364 0
-0.00195683 0.0846409 0
-0.00441189 0.0599018 0
-0.00873183 0.0334725 0
-0.0152877 0.00552749 0
-0.0244395 -0.0241424 0
-0.0364916 -0.0562829 0
-0.0516461 -0.092441 0
-0.0697662 -0.134776 0
-0.0899375 -0.185311 0
-0.109959 -0.244674 0
-0.125971 -0.310077 0
-0.132513 -0.372846 0
-0.123505 -0.415389 0
-0.0950846 -0.408912 0
-0.0515493 -0.31688 0
-0.013647 -0.1208 0
-5.94415e-05 0.0404552 0
-0.000523209 0.101302 0
-0.00153145 0.143256 0
-0.00268077 0.169762 0
-0.00347407 0.185045 0
-0.00350915 0.192801 0
-0.00254601 0.195641 0
-0.000513164 0.195142 0
0.00251287 0.192108 0
0.00634817 0.186839 0
0.0107407 0.179363 0
0.0153942 0.169597 0
0.0199838 0.15745 0
0.0241647 0.142874 0
0.027579 0.125904 0
0.0298638 0.106685 0
0.0306612 0.0854644 0
0.0296284 0.0625661 0
0.0264455 0.038311 0
0.0208125 0.0128778 0
0.0124136 -0.013942 0
0.000915319 -0.042933 0
-0.0140322 -0.075689 0
-0.0326536 -0.114787 0
-0.0546749 -0.163108 0
-0.0786754 -0.222855 0
-0.101367 -0.293194 0
-0.117164 -0.36739 0
-0.118569 -0.428449 0
-0.0986791 -0.444161 0
-0.0579278 -0.365917 0
-0.0165732 -0.15102 0
-0.000285113 0.0407997 0
-0.00119261 0.102329 0
-0.0023115 0.144357 0
-0.00283695 0.170336 0
-0.00223931 0.184666 0
-0.000258578 0.191234 0
0.00317422 0.192812 0
0.00797089 0.191141 0
0.0139183 0.187135 0
0.0207319 0.181163 0
0.0280785 0.1733 0
0.035593 0.163492 0
0.0428896 0.151669 0
0.04957 0.137794 0
0.0552316 0.121908 0
0.0594781 0.104149 0
0.0619337 0.0847468 0
0.0622596 0.0639907 0
0.0601664 0.0421625 0
0.0554145 0.0194112 0
0.0477829 -0.00444485 0
0.0370335 -0.0301825 0
0.0228821 -0.0593406 0
0.00490945 -0.0945412 0
-0.017299 -0.139124 0
-0.0433396 -0.196798 0
-0.071019 -0.26888 0
-0.0953856 -0.351539 0
-0.108153 -0.430128 0
-0.0993342 -0.471191 0
-0.0641772 -0.414796 0
-0.0200398 -0.187633 0
-0.000819312 0.0419041 0
-0.00290775 0.104221 0
-0.00485261 0.145529 0
-0.0051433 0.16998 0
-0.00322417 0.182506 0
0.000910361 0.187279 0
0.00703472 0.18721 0
0.0148186 0.184163 0
0.0238744 0.17911 0
0.0337957 0.172453 0
0.0441658 0.164292 0
0.0545591 0.154592 0
0.0645441 0.143288 0
0.0736879 0.13035 0
0.0815638 0.115814 0
0.0877631 0.0997977 0
0.091912 0.082494 0
0.0936892 0.0641405 0
0.0928402 0.0449549 0
0.0891793 0.0250315 0
0.0825638 0.00418198 0
0.0728202 -0.0183163 0
0.0596917 -0.0439268 0
0.0427913 -0.075082 0
0.0216099 -0.115193 0
-0.00441693 -0.168661 0
-0.034827 -0.238927 0
-0.066216 -0.325736 0
-0.0906107 -0.418769 0
-0.095424 -0.486555 0
-0.069493 -0.460519 0
-0.0239334 -0.231606 0
-0.00186551 0.044589 0
-0.00622077 0.10798 0
-0.00985553 0.14735 0
-0.0102296 0.168824 0
-0.00689278 0.178406 0
-0.000297296 0.180649 0
0.00887978 0.178538 0
0.0199773 0.173953 0
0.0323982 0.167843 0
0.0456071 0.16059 0
0.0591125 0.152281 0
0.0724469 0.142876 0
0.0851567 0.132309 0
0.0967998 0.120542 0
0.106952 0.107595 0
0.115217 0.0935529 0
0.121244 0.0785625 0
0.124744 0.0627953 0
0.125499 0.0463938 0
0.123367 0.0293858 0
0.118252 0.0115583 0
0.110039 -0.00773612 0
0.0984864 -0.0298259 0
0.0831829 -0.056979 0
0.0635164 -0.0924485 0
0.0386409 -0.140504 0
0.00779141 -0.205825 0
-0.0282191 -0.291439 0
-0.0635322 -0.393359 0
-0.084311 -0.486373 0
-0.0722483 -0.498695 0
-0.0278496 -0.283389 0
-0.00378257 0.050237 0
-0.0119643 0.114868 0
-0.0181313 0.150263 0
-0.0185571 0.166711 0
-0.0133025 0.171927 0
-0.00360728 0.170837 0
0.00922775 0.166338 0
0.024139 0.160144 0
0.0403055 0.153065 0
0.0570808 0.145384 0
0.0739271 0.137135 0
0.0903658 0.128249 0
0.105952 0.118641 0
0.120266 0.108254 0
0.132913 0.0970833 0
0.143536 0.0851759 0
0.151826 0.0726226 0
0.157534 0.0595272 0
0.160483 0.0459582 0
0.160557 0.0318797 0
0.157683 0.0170529 0
0.151771 0.000894974 0
0.142579 -0.017713 0
0.12965 -0.0408589 0
0.112233 -0.0714858 0
0.0891738 -0.113531 0
0.0590117 -0.171786 0
0.0207434 -0.2512 0
-0.0235235 -0.354018 0
-0.0618652 -0.466593 0
-0.0694071 -0.522996 0
-0.0308277 -0.342066 0
-0.00713924 0.0611588 0
-0.0211445 0.126134 0
-0.0300597 0.15408 0
-0.0295146 0.162775 0
-0.0209715 0.162066 0
-0.00690649 0.156938 0
0.0106227 0.149873 0
0.030148 0.142173 0
0.0506681 0.134349 0
0.0714851 0.126507 0
0.0920665 0.118584 0
0.111967 0.110461 0
0.130787 0.102022 0
0.148161 0.0931852 0
0.163753 0.0839136 0
0.177261 0.0742138 0
0.188433 0.0641234 0
0.197067 0.0536846 0
0.203014 0.0429049 0
0.206172 0.0317009 0
0.206455 0.0198227 0
0.203742 0.00675067 0
0.19781 -0.00844534 0
0.188147 -0.0275342 0
0.173798 -0.0530449 0
0.153264 -0.0883784 0
0.124438 -0.137952 0
0.0849742 -0.207302 0
0.0339401 -0.302615 0
-0.0219202 -0.423794 0
-0.0555623 -0.52461 0
-0.0308494 -0.403744 0
-0.0125457 0.0808438 0
-0.0338995 0.141808 0
-0.043331 0.156752 0
-0.038366 0.154592 0
-0.0233929 0.146732 0
-0.00251468 0.137329 0
0.0215033 0.127935 0
0.0469533 0.119136 0
0.0728244 0.110995 0
0.0984813 0.103387 0
0.123476 0.096128 0
0.147452 0.0890403 0
0.170099 0.0819748 0
0.191134 0.074823 0
0.2103 0.0675186 0
0.227368 0.0600321 0
0.242143 0.0523579 0
0.254468 0.044492 0
0.264216 0.0364018 0
0.27128 0.0279821 0
0.275541 0.0189976 0
0.276827 0.00900229 0
0.274842 -0.00278001 0
0.268994 -0.0176889 0
0.258156 -0.0377021 0
0.24047 -0.0655005 0
0.213229 -0.104764 0
0.172966 -0.160763 0
0.116351 -0.241505 0
0.0442956 -0.356988 0
-0.0213141 -0.492165 0
-0.0238117 -0.458405 0
-0.0191485 0.112538 0
-0.0443973 0.156716 0