# vtk DataFile Version 2.0
Lid-driven cavity
ASCII
DATASET STRUCTURED_POINTS
DIMENSIONS 32 32 1
ORIGIN 0.015625 0.015625 0
SPACING 0.03125 0.03125 1
POINT_DATA 1024
SCALARS pressure double 1
LOOKUP_TABLE default
-0.391253
-0.390373
-0.3854
-0.376134
-0.362657
-0.345121
-0.323711
-0.29865
-0.270195
-0.238634
-0.20429
-0.167513
-0.128677
-0.0881801
-0.04644
-0.00388902
0.039028
0.0818646
0.124166
0.165475
0.205341
0.243322
0.278991
0.311942
0.341793
0.368194
0.390831
0.409427
0.423749
0.433613
0.438921
0.439893
-0.392135
-0.39126
-0.386179
-0.376853
-0.363342
-0.345778
-0.324339
-0.299244
-0.270748
-0.239141
-0.204746
-0.16791
-0.129012
-0.0884472
-0.0466348
-0.0040077
0.0389885
0.0819067
0.124291
0.165683
0.205631
0.243693
0.27944
0.312463
0.342382
0.368843
0.391532
0.410176
0.424547
0.434482
0.4399
0.440862
-0.397166
-0.396393
-0.391257
-0.381809
-0.368132
-0.350359
-0.328669
-0.30328
-0.274451
-0.242473
-0.207672
-0.1704
-0.131038
-0.0899861
-0.0476668
-0.00451719
0.0390132
0.0824701
0.125392
0.167317
0.207786
0.246351
0.282577
0.31605
0.346381
0.373211
0.396221
0.415133
0.429717
0.439805
0.445292
0.446148
-0.406679
-0.405948
-0.40072
-0.391067
-0.377088
-0.358923
-0.336756
-0.310809
-0.281347
-0.248667
-0.213101
-0.175008
-0.134775
-0.092811
-0.0495449
-0.00542182
0.0391007
0.0835574
0.127477
0.170388
0.211821
0.251317
0.28843
0.322732
0.353825
0.381337
0.404938
0.424339
0.439304
0.449649
0.455256
0.456072
-0.420798
-0.420069
-0.414688
-0.404732
-0.390307
-0.371561
-0.348684
-0.32191
-0.291509
-0.257788
-0.221089
-0.181782
-0.140263
-0.0969535
-0.0522925
-0.00673685
0.0392438
0.0851698
0.130556
0.174917
0.217767
0.258633
0.297049
0.332574
0.364788
0.393305
0.417776
0.437898
0.453419
0.464145
0.469946
0.470768
-0.439664
-0.438917
-0.43332
-0.422953
-0.40793
-0.388405
-0.364581
-0.336698
-0.305042
-0.269932
-0.231723
-0.190797
-0.147567
-0.102466
-0.0559502
-0.00849092
0.0394265
0.0873047
0.134641
0.180929
0.225667
0.268356
0.308512
0.345668
0.379381
0.409241
0.434877
0.455964
0.472233
0.483473
0.489545
0.490397
-0.463473
-0.462694
-0.456818
-0.445928
-0.430145
-0.409635
-0.384611
-0.35533
-0.32209
-0.285228
-0.245116
-0.202153
-0.156771
-0.10942
-0.0605745
-0.0107244
0.0396253
0.0899561
0.139743
0.188459
0.235574
0.280565
0.322918
0.362137
0.397749
0.429314
0.45643
0.478746
0.495967
0.507865
0.514291
0.515189
-0.492477
-0.491657
-0.485435
-0.473902
-0.457189
-0.435475
-0.408986
-0.377999
-0.34283
-0.303837
-0.261412
-0.215978
-0.167984
-0.117906
-0.0662364
-0.0134892
0.0398086
0.0931143
0.145878
0.197543
0.247552
0.29535
0.340388
0.382133
0.420075
0.453734
0.482673
0.506504
0.524903
0.537617
0.544482
0.545441
-0.526991
-0.526119
-0.519481
-0.507178
-0.489352
-0.466198
-0.437962
-0.404942
-0.367479
-0.325954
-0.280785
-0.232421
-0.181337
-0.128031
-0.0730229
-0.0168497
0.0399358
0.0967635
0.153054
0.208222
0.261674
0.312818
0.361064
0.405836
0.446576
0.482758
0.513896
0.53956
0.559385
0.573089
0.580488
0.581524
-0.567391
-0.566458
-0.559327
-0.546114
-0.526976
-0.502129
-0.471841
-0.436438
-0.396289
-0.351807
-0.303438
-0.251662
-0.196982
-0.139925
-0.0810374
-0.020884
0.0399551
0.10088
0.161282
0.220538
0.278018
0.333087
0.385109
0.433453
0.477506
0.516684
0.550442
0.578295
0.599827
0.614717
0.622759
0.623887
-0.614125
-0.613118
-0.605411
-0.591135
-0.570467
-0.543647
-0.510976
-0.47281
-0.429554
-0.381658
-0.329603
-0.273903
-0.215094
-0.153735
-0.0904009
-0.0256856
0.0398018
0.105431
0.170558
0.234526
0.296663
0.356285
0.412699
0.465217
0.513156
0.555861
0.592714
0.62316
0.64672
0.663022
0.671828
0.673068
-0.667715
-0.666622
-0.658245
-0.642734
-0.620293
-0.591194
-0.555772
-0.514427
-0.467607
-0.415804
-0.359541
-0.299373
-0.235871
-0.169629
-0.101253
-0.0313654
0.0393947
0.110366
0.180872
0.250217
0.317685
0.382538
0.444025
0.501383
0.553851
0.600684
0.641177
0.674683
0.700643
0.718619
0.728332
0.729705
-0.728773
-0.727581
-0.718426
-0.701486
-0.676997
-0.645271
-0.606691
-0.561708
-0.510821
-0.454576
-0.393544
-0.328326
-0.259533
-0.187796
-0.113751
-0.0380527
0.0386343
0.115619
0.192193
0.267623
0.341147
0.411973
0.47928
0.542223
0.599946
0.651599
0.696362
0.733474
0.762273
0.782234
0.793023
0.794555
-0.798011
-0.796702
-0.786645
-0.768051
-0.741199
-0.706452
-0.664254
-0.615118
-0.55961
-0.498336
-0.431929
-0.361036
-0.286318
-0.208441
-0.128074
-0.0458974
0.0373986
0.121099
0.204465
0.286731
0.367091
0.444696
0.51865
0.588015
0.651824
0.709096
0.75887
0.800239
0.832402
0.854721
0.86679
0.868511
-0.876256
-0.874812
-0.863705
-0.843193
-0.813611
-0.775388
-0.729045
-0.675176
-0.614427
-0.547479
-0.475033
-0.397798
-0.316481
-0.231786
-0.144416
-0.0550701
0.0355408
0.126684
0.2176
0.307496
0.395526
0.480787
0.562303
0.639035
0.709883
0.773711
0.829377
0.875786
0.911954
0.937089
0.950688
0.952634
-0.964478
-0.962875
-0.950541
-0.927795
-0.895046
-0.852813
-0.801715
-0.742447
-0.675757
-0.602419
-0.523213
-0.438915
-0.350285
-0.258066
-0.162986
-0.0657621
0.0328859
0.132218
0.231466
0.329821
0.426408
0.520272
0.610364
0.69553
0.774522
0.846011
0.908631
0.96104
1.00201
1.03053
1.04597
1.04819
-1.06381
-1.06202
-1.04824
-1.02288
-0.986435
-0.939553
-0.88298
-0.817545
-0.744118
-0.663588
-0.576829
-0.484693
-0.387995
-0.287516
-0.184004
-0.0781836
0.0292294
0.137504
0.245878
0.353545
0.459618
0.563106
0.662888
0.757696
0.846113
0.926582
0.997453
1.05706
1.10383
1.13647
1.15415
1.1567
-1.17562
-1.1736
-1.15809
-1.12963
-1.08884
-1.03654
-0.973632
-0.901125
-0.820046
-0.73142
-0.636234
-0.535424
-0.429864
-0.320367
-0.207692
-0.0925592
0.024337
0.142295
0.260583
0.378423
0.49494
0.60913
0.719819
0.82563
0.924964
1.016
1.09672
1.16503
1.2189
1.25662
1.27706
1.27999
-1.3015
-1.2992
-1.28162
-1.24943
-1.20349
-1.1448
-1.07453
-0.993874
-0.90408
-0.806334
-0.701754
-0.59137
-0.476113
-0.356824
-0.234261
-0.10912
0.0179475
0.146295
0.275254
0.404106
0.532027
0.658035
0.780939
0.899272
1.01125
1.11475
1.20733
1.2863
1.34898
1.39304
1.41694
1.42035
-1.44343
-1.44078
-1.42064
-1.38394
-1.33179
-1.26551
-1.18658
-1.09649
-0.996737
-0.888702
-0.773657
-0.65273
-0.526909
-0.39705
-0.263894
-0.128089
0.00977983
0.149157
0.289474
0.430117
0.570362
0.709306
0.845792
0.978315
1.10494
1.22321
1.33014
1.42232
1.49613
1.54829
1.5766
1.58061
-1.60385
-1.60073
-1.57739
-1.53509
-1.47535
-1.39995
-1.31076
-1.20967
-1.09848
-0.978818
-0.852117
-0.719611
-0.582332
-0.441136
-0.296723
-0.149668
-0.00045375
0.150489
0.302739
0.455839
0.60923
0.762163
0.913602
1.06209
1.2056
1.34139
1.46587
1.57464
1.66278
1.72554
1.75965
1.76437
-1.78585
-1.7821
-1.75462
-1.70523
-1.63606
-1.54951
-1.44804
-1.33404
-1.20967
-1.07684
-0.937169
-0.791981
-0.642338
-0.489067
-0.332798
-0.174003
-0.0130269
0.149868
0.314456
0.4805
0.64768
0.815501
0.983164
1.1494
1.31225
1.46878
1.61481
1.74472
1.85173
1.92882
1.97079
1.97641
-1.99344
-1.98879
-1.95582
-1.89722
-1.81608
-1.71571
-1.59938
-1.47009
-1.33046
-1.18272
-1.02864
-0.869614
-0.706706
-0.540678
-0.372054
-0.201161
-0.0281693
0.146867
0.323969
0.503184
0.684517
0.867836
1.05274
1.23835
1.42303
1.60392
1.77642
1.9336
2.06611
2.16329
2.21647
2.2232
-2.23204
-2.22605
-2.18548
-2.11454
-2.01786
-1.90009
-1.76557
-1.61808
-1.46076
-1.29612
-1.12607
-0.952026
-0.77499
-0.595612
-0.414261
-0.231081
-0.0460275
0.141092
0.330592
0.522863
0.718312
0.91729
1.11997
1.32613
1.53482
1.74379
1.94854
2.14108
2.30891
2.43562
2.50594
2.51421
-2.5093
-2.50108
-2.4495
-2.36148
-2.24414
-2.10411
-1.94713
-1.77788
-1.60002
-1.41629
-1.22863
-1.0384
-0.846462
-0.653271
-0.458992
-0.263537
-0.0666165
0.132241
0.333673
0.538459
0.747471
0.961635
1.18185
1.40885
1.64286
1.88301
2.12603
2.36407
2.58167
2.75415
2.8534
2.86472
-2.83657
-2.82434
-2.75587
-2.64327
-2.49779
-2.32887
-2.14398
-1.94872
-1.7471
-1.54192
-1.33502
-1.12753
-0.920052
-0.712768
-0.505568
-0.298091
-0.0897659
0.120167
0.332677
0.548958
0.770371
0.998455
1.23492
1.48164
1.7405
2.01294
2.29878
2.59317
2.8807
3.12749
3.28194
3.30325
-3.23208
-3.2116
-3.11543
-2.96601
-2.78135
-2.57464
-2.35507
-2.12884
-1.89999
-1.67101
-1.44335
-1.21772
-0.994294
-0.772887
-0.553029
-0.334041
-0.115058
0.104967
0.327312
0.553571
0.785595
1.02548
1.27568
1.53917
1.81962
2.12149
2.44974
2.80753
3.18847
3.55764
3.82857
3.88975
-3.72806
-3.6878
-3.54262
-3.3359
-3.09592
-2.83975
-2.57748
-2.31496
-2.05543
-1.80054
-1.55094
-1.30664
-1.06722
-0.83199
-0.600045
-0.370347
-0.141729
0.0871164
0.31773
0.552032
0.792346
1.0412
1.30154
1.57707
1.87273
2.19557
2.55639
2.97167
3.46114
4.02113
4.54341
4.75354
-4.38864
-4.29276
-4.05378
-3.75543
-3.4375
-3.11785
-2.80447
-2.50075
-2.20782
-1.92568
-1.65369
-1.39085
-1.13596
-0.887683
-0.644627
-0.405356
-0.168407
0.06775
0.304883
0.545161
0.79119
1.0459
1.31243
1.59458
1.89751
2.22899
2.60326
3.05057
3.63487
4.45082
5.4726
6.15741
-5.3569
-5.08016
-4.65054
-4.20693
-3.78451
-3.38893
-3.01897
-2.67209
-2.34562
-2.03702
-1.74392
-1.46407
-1.19533
-0.935684
-0.68319
-0.436018
-0.19243
0.0492891
0.291141
0.535508
0.78512
1.043
1.31249
1.59719
1.90184
2.23382
2.6082
3.06445
3.71191
4.8071
6.66349
8.60324
-6.96127
-6.03727
-5.23464
-4.59334
-4.05787
-3.5912
-3.17311
-2.79186
-2.4399
-2.11192
-1.80381
-1.51216
-1.23405
-0.96687
-0.708264
-0.456102
-0.208464
0.0365171
0.281076
0.527748
0.779321
1.03879
1.30941
1.5949
1.9003
2.23438
2.61761
3.10701
3.86738
5.33523
8.36967
13.0048
-10.2444
-6.63174
-5.27602
-4.5545
-4.0255
-3.57356
-3.16584
-2.79055
-2.44171
-2.11519
-1.8076
-1.51598
-1.23763
-0.970108
-0.71113
-0.458624
-0.210715
0.0345299
0.27941
0.526435
0.778326
1.03802
1.30878
1.59465
1.90185
2.24291
2.64873
3.20323
4.13997
6.11022
10.9271
22.9479
VECTORS velocity double
-7.64016e-05 7.64017e-05 0
-0.000368841 0.000216038 0
-0.000853654 0.000268775 0
-0.00139986 0.000277435 0
-0.00194838 0.00027108 0
-0.00247909 0.000259636 0
-0.00298413 0.000245396 0
-0.00345828 0.00022876 0
-0.00389688 0.000209843 0
-0.0042955 0.000188773 0
-0.00464998 0.000165709 0
-0.00495652 0.000140832 0
-0.00521169 0.00011434 0
-0.00541248 8.64438e-05 0
-0.00555629 5.73674e-05 0
-0.00564102 2.73594e-05 0
-0.00566508 -3.2923e-06 0
-0.00562746 -3.43284e-05 0
-0.0055277 -6.54327e-05 0
-0.005366 -9.62682e-05 0
-0.00514324 -0.000126489 0
-0.00486102 -0.000155734 0
-0.00452166 -0.000183622 0
-0.00412828 -0.000209767 0
-0.00368472 -0.000233789 0
-0.0031956 -0.000255328 0
-0.00266625 -0.000274023 0
-0.00210306 -0.000289175 0
-0.00151586 -0.000298021 0
-0.00092806 -0.00028978 0
-0.000404354 -0.000233926 0
-8.52144e-05 -8.52146e-05 0
-0.000218769 0.000371573 0
-0.000878761 0.000873299 0
-0.00184292 0.00106049 0
-0.00290336 0.00109237 0
-0.00396693 0.00106823 0
-0.00499701 0.00102328 0
-0.00597675 0.000966529 0
-0.00689496 0.000899997 0
-0.00774215 0.0008244 0
-0.00850968 0.000740365 0
-0.00918968 0.000648593 0
-0.00977504 0.000549847 0
-0.0102595 0.00044494 0
-0.0106376 0.000334727 0
-0.0109048 0.000220105 0
-0.0110575 0.000102032 0
-0.0110929 -1.84291e-05 0
-0.0110096 -0.000140104 0
-0.0108073 -0.000261761 0
-0.0104868 -0.000382154 0
-0.0100502 -0.000499978 0
-0.00950079 -0.000613854 0
-0.0088433 -0.000722342 0
-0.00808377 -0.000823969 0
-0.00722964 -0.00091727 0
-0.0062898 -0.00100081 0
-0.00527466 -0.00107302 0
-0.00419719 -0.00113085 0
-0.00307708 -0.00116365 0
-0.00195572 -0.00113331 0
-0.000934097 -0.000935729 0
-0.00023311 -0.000403539 0
-0.000279348 0.00086969 0
-0.00109609 0.00185192 0
-0.00225883 0.00220877 0
-0.00352327 0.00226896 0
-0.00478698 0.00221892 0
-0.00600968 0.00212536 0
-0.00717191 0.00200641 0
-0.00826027 0.00186669 0
-0.00926339 0.00170802 0
-0.010171 0.00153192 0
-0.010974 0.00133996 0
-0.0116639 0.00113381 0
-0.0122337 0.000915203 0
-0.0126771 0.000685965 0
-0.012989 0.000447978 0
-0.0131654 0.000203217 0
-0.0132034 -4.61848e-05 0
-0.0131013 -0.000297716 0
-0.0128589 -0.000548885 0
-0.0124772 -0.000797196 0
-0.0119588 -0.00104001 0
-0.0113075 -0.00127454 0
-0.0105287 -0.00149786 0
-0.00962975 -0.00170698 0
-0.00861924 -0.0018989 0
-0.00750768 -0.00207059 0
-0.00630744 -0.00221862 0
-0.00503377 -0.0023364 0
-0.00370922 -0.00240275 0
-0.00237921 -0.00234558 0
-0.00115471 -0.00196959 0
-0.000294364 -0.000931013 0
-0.000301 0.00145004 0
-0.00117972 0.00296703 0
-0.00242632 0.003503 0
-0.00377673 0.00358958 0
-0.00512343 0.00350872 0
-0.00642511 0.00335994 0
-0.00766173 0.00317068 0
-0.00881924 0.00294829 0
-0.00988563 0.00269592 0
-0.0108501 0.00241614 0
-0.0117029 0.00211153 0
-0.0124355 0.00178481 0
-0.0130403 0.00143879 0
-0.0135109 0.00107638 0
-0.013842 0.000700569 0
-0.0140295 0.000314482 0
-0.0140704 -7.85589e-05 0
-0.0139631 -0.000474755 0
-0.013707 -0.000870297 0
-0.0133032 -0.0012613 0
-0.0127539 -0.00164363 0
-0.0120632 -0.00201295 0
-0.0112367 -0.00236468 0
-0.0102817 -0.00269413 0
-0.00920746 -0.00299654 0
-0.00802487 -0.00326709 0
-0.00674705 -0.00350019 0
-0.00539004 -0.00368552 0
-0.00397723 -0.00379099 0
-0.00255558 -0.00370899 0
-0.00124214 -0.00314412 0
-0.000316795 -0.00154217 0
-0.000313053 0.00206409 0
-0.00122933 0.00414796 0
-0.0025306 0.00486994 0
-0.00393912 0.00498157 0
-0.00534246 0.00486677 0
-0.00669799 0.0046591 0
-0.00798522 0.00439537 0
-0.00918976 0.00408566 0
-0.0102993 0.00373448 0
-0.0113028 0.0033455 0
-0.0121902 0.00292244 0
-0.0129528 0.0024691 0
-0.0135829 0.00198942 0
-0.014074 0.00148743 0
-0.0144207 0.000967275 0
-0.0146186 0.000433232 0
-0.0146649 -0.000110165 0
-0.0145574 -0.000657946 0
-0.0142956 -0.001205 0
-0.01388 -0.00174601 0
-0.0133129 -0.00227532 0
-0.0125979 -0.00278693 0
-0.0117405 -0.00327455 0
-0.0107481 -0.00373163 0
-0.00962994 -0.00415153 0
-0.00839717 -0.00452744 0
-0.00706332 -0.00485151 0
-0.00564501 -0.00510952 0
-0.00416653 -0.00525827 0
-0.00267701 -0.00515289 0
-0.00129983 -0.00439084 0
-0.000330826 -0.00218979 0
-0.000325826 0.00270297 0
-0.0012812 0.00538073 0
-0.00263952 0.00629677 0
-0.00410979 0.00643353 0
-0.00557405 0.00628242 0
-0.00698781 0.00601273 0
-0.00832983 0.00567099 0
-0.00958533 0.00527009 0
-0.0107417 0.00481592 0
-0.0117875 0.00431336 0
-0.0127127 0.00376726 0
-0.0135085 0.0031826 0
-0.0141669 0.00256444 0
-0.0146813 0.00191795 0
-0.0150463 0.00124838 0
-0.0152573 0.000561157 0
-0.0153112 -0.000138042 0
-0.0152056 -0.000843121 0
-0.0149395 -0.00154771 0
-0.0145133 -0.00224508 0
-0.0139286 -0.00292804 0
-0.0131889 -0.0035889 0
-0.0122993 -0.00421954 0
-0.0112669 -0.00481145 0
-0.0101009 -0.00535591 0
-0.00881279 -0.00584394 0
-0.00741645 -0.00626521 0
-0.00592925 -0.00660134 0
-0.00437689 -0.00679729 0
-0.00281154 -0.00666875 0
-0.00136406 -0.00569963 0
-0.000346725 -0.00286735 0
-0.000341877 0.00337067 0
-0.00134518 0.0066717 0
-0.00277244 0.00779138 0
-0.0043173 0.00795404 0
-0.00585538 0.00776426 0
-0.00733978 0.00742905 0
-0.00874828 0.0070052 0
-0.0100655 0.00650861 0
-0.0112785 0.00594668 0
-0.0123755 0.00532553 0
-0.0133465 0.00465126 0
-0.0141822 0.00393004 0
-0.0148749 0.00316809 0
-0.0154178 0.00237167 0
-0.0158053 0.00154712 0
-0.0160328 0.000700926 0
-0.0160966 -0.000160167 0
-0.0159942 -0.00102899 0
-0.0157241 -0.00189797 0
-0.0152861 -0.00275903 0
-0.0146814 -0.00360345 0
-0.0139128 -0.00442182 0
-0.0129849 -0.00520409 0
-0.0119046 -0.00593963 0
-0.0106809 -0.00661742 0
-0.0093254 -0.00722604 0
-0.00785252 -0.00775233 0
-0.00628066 -0.00817327 0
-0.00463738 -0.008421 0
-0.00297875 -0.00826903 0
-0.00144468 -0.0070809 0
-0.00036701 -0.00358108 0
-0.000361775 0.00407433 0
-0.00142383 0.0080334 0
-0.00293487 0.00936798 0
-0.00457008 0.00955751 0
-0.00619745 0.00932624 0
-0.0077672 0.00892122 0
-0.00925587 0.0084102 0
-0.0106474 0.00781235 0
-0.0119282 0.00713675 0
-0.0130866 0.00639092 0
-0.0141121 0.00558227 0
-0.0149956 0.00471824 0
-0.0157292 0.00380619 0
-0.0163062 0.00285348 0
-0.0167208 0.00186744 0
-0.0169683 0.000855526 0
-0.0170447 -0.000174563 0
-0.016947 -0.00121467 0
-0.0166732 -0.00225616 0
-0.0162224 -0.00328966 0
-0.0155949 -0.00430497 0
-0.0147929 -0.00529094 0
-0.0138203 -0.00623548 0
-0.0126832 -0.00712565 0
-0.0113904 -0.00794785 0
-0.00995371 -0.00868783 0
-0.00838801 -0.00932912 0
-0.00671294 -0.00984341 0
-0.00495843 -0.0101487 0
-0.00318541 -0.009973 0
-0.0015448 -0.00855162 0
-0.000392372 -0.00434046 0
-0.000385796 0.0048219 0
-0.00151843 0.00948052 0
-0.00312965 0.0110431 0
-0.00487254 0.0112605 0
-0.00660606 0.0109842 0
-0.008277 0.010504 0
-0.00986041 0.0098995 0
-0.0113394 0.00919353 0
-0.0127 0.00839703 0
-0.01393 0.00751912 0
-0.0150191 0.00656866 0
-0.0159582 0.00555441 0
-0.0167395 0.00448491 0
-0.0173563 0.00336854 0
-0.0178029 0.00221357 0
-0.0180743 0.00102826 0
-0.0181663 -0.000178904 0
-0.0180753 -0.00139894 0
-0.0177987 -0.00262228 0
-0.0173347 -0.00383844 0
-0.0166825 -0.0050358 0
-0.0158431 -0.00620148 0
-0.0148195 -0.00732125 0
-0.0136169 -0.00837961 0
-0.0122435 -0.00936002 0
-0.010711 -0.0102449 0
-0.00903486 -0.0110139 0
-0.00723618 -0.0116324 0
-0.00534775 -0.0120026 0
-0.0034365 -0.0118033 0
-0.00166671 -0.0101317 0
-0.00042334 -0.00515617 0
-0.000414277 0.00562197 0
-0.00163035 0.0110292 0
-0.00335965 0.012835 0
-0.00522909 0.0130809 0
-0.00708693 0.0127551 0
-0.00887597 0.0121931 0
-0.0105695 0.0114873 0
-0.0121496 0.0106648 0
-0.0136019 0.00973867 0
-0.0149142 0.00871985 0
-0.016076 0.00761883 0
-0.0170785 0.00644577 0
-0.0179141 0.00521043 0
-0.0185764 0.00392216 0
-0.0190599 0.00258998 0
-0.0193594 0.0012228 0
-0.0194706 -0.000170328 0
-0.0193891 -0.00157985 0
-0.0191116 -0.00299553 0
-0.0186349 -0.00440596 0
-0.017957 -0.00579829 0
-0.0170775 -0.00715792 0
-0.0159975 -0.0084684 0
-0.0147211 -0.00971144 0
-0.0132556 -0.0108671 0
-0.0116121 -0.0119138 0
-0.00980669 -0.0128265 0
-0.00786199 -0.0135631 0
-0.00581429 -0.014008 0
-0.00373784 -0.0137856 0
-0.00181323 -0.0118438 0
-0.000460606 -0.00604012 0
-0.000447671 0.00648392 0
-0.00176139 0.012697 0
-0.00362846 0.0147635 0
-0.0056451 0.0150385 0
-0.00764701 0.0146573 0
-0.00957222 0.0140051 0
-0.011392 0.0131886 0
-0.0130875 0.0122392 0
-0.0146438 0.0111729 0
-0.0160487 0.0100028 0
-0.017292 0.008741 0
-0.0183654 0.00739938 0
-0.0192617 0.00598884 0
-0.0199753 0.00451961 0
-0.0205006 0.00300132 0
-0.0208329 0.00144325 0
-0.0209672 -0.000145302 0
-0.0208989 -0.00175456 0
-0.0206234 -0.00337397 0
-0.020136 -0.00499155 0
-0.0194331 -0.00659345 0
-0.018512 -0.00816351 0
-0.0173717 -0.009683 0
-0.0160144 -0.0111306 0
-0.0144455 -0.0124824 0
-0.0126755 -0.0137121 0
-0.0107205 -0.0147887 0
-0.00860504 -0.0156612 0
-0.00636944 -0.0161933 0
-0.00409696 -0.0159493 0
-0.00198802 -0.0137136 0
-0.000505094 -0.00700582 0
-0.000486574 0.00741816 0
-0.00191382 0.0145037 0
-0.00394066 0.0168507 0
-0.00612736 0.0171546 0
-0.00829491 0.0167106 0
-0.0103758 0.0159579 0
-0.0123389 0.0150187 0
-0.0141644 0.0139301 0
-0.015837 0.012711 0
-0.0173446 0.0113772 0
-0.0186778 0.00994303 0
-0.019829 0.00842186 0
-0.0207921 0.00682588 0
-0.0215621 0.00516606 0
-0.0221342 0.00345239 0
-0.022504 0.00169416 0
-0.0226663 -9.95049e-05 0
-0.0226159 -0.00191908 0
-0.0223467 -0.00375419 0
-0.0218526 -0.00559278 0
-0.0211273 -0.00742042 0
-0.0201653 -0.00921966 0
-0.0189629 -0.0109695 0
-0.0175189 -0.0126454 0
-0.0158364 -0.0142189 0
-0.0139241 -0.0156579 0
-0.011798 -0.016924 0
-0.00948414 -0.0179552 0
-0.00702795 -0.018591 0
-0.00452365 -0.0183283 0
-0.00219589 -0.0157713 0
-0.000558024 -0.00806894 0
-0.000531761 0.0084365 0
-0.00209061 0.0164715 0
-0.00430208 0.0191213 0
-0.00668444 0.0194531 0
-0.00904147 0.0189367 0
-0.0112991 0.0180703 0
-0.0134235 0.0169938 0
-0.0153939 0.0157507 0
-0.0171948 0.0143639 0
-0.0188148 0.012852 0
-0.0202454 0.011232 0
-0.0214805 0.00951912 0
-0.0225154 0.00772669 0
-0.0233465 0.00586629 0
-0.0239701 0.00394793 0
-0.0243822 0.00198047 0
-0.024578 -2.77187e-05 0
-0.0245513 -0.00206799 0
-0.0242949 -0.00413088 0
-0.0238001 -0.00620495 0
-0.0230579 -0.0082758 0
-0.0220589 -0.0103252 0
-0.0207953 -0.0123301 0
-0.0192615 -0.0142625 0
-0.0174569 -0.0160889 0
-0.015387 -0.01777 0
-0.0130667 -0.0192583 0
-0.0105237 -0.0204778 0
-0.00780907 -0.0212392 0
-0.00503078 -0.0209627 0
-0.00244316 -0.0180523 0
-0.000621 -0.00924796 0
-0.000584245 0.0095525 0
-0.0022956 0.0186257 0
-0.00472025 0.0216032 0
-0.00732733 0.0219606 0
-0.00990038 0.0213592 0
-0.0123577 0.0203626 0
-0.0146624 0.0191307 0
-0.0167926 0.0177145 0
-0.0187333 0.0161417 0
-0.0204741 0.0144349 0
-0.0220083 0.0126139 0
-0.0233319 0.0106959 0
-0.0244424 0.00869541 0
-0.0253382 0.00662441 0
-0.0260172 0.00449248 0
-0.0264767 0.00230747 0
-0.0267119 7.62626e-05 0
-0.0267163 -0.00219423 0
-0.0264811 -0.00449637 0
-0.025995 -0.00682031 0
-0.025245 -0.00915266 0
-0.0242171 -0.0114752 0
-0.0228975 -0.0137634 0
-0.0212749 -0.0159857 0
-0.0193423 -0.0181029 0
-0.0171008 -0.0200674 0
-0.0145623 -0.0218197 0
-0.0117555 -0.0232662 0
-0.00873826 -0.0241826 0
-0.00563544 -0.0239004 0
-0.00273824 -0.0205994 0
-0.000696152 -0.0105651 0
-0.000645367 0.0107821 0
-0.00253385 0.0209959 0
-0.00520499 0.0243288 0
-0.00807018 0.0247073 0
-0.0108891 0.0240045 0
-0.013571 0.0228566 0
-0.0160758 0.0214462 0
-0.0183806 0.019834 0
-0.0204714 0.0180536 0
-0.0223397 0.0161321 0
-0.0239816 0.0140928 0
-0.0253961 0.0119551 0
-0.0265839 0.00973462 0
-0.0275463 0.00744339 0
-0.0282838 0.00509003 0
-0.0287951 0.00268063 0
-0.0290764 0.000219671 0
-0.0291209 -0.00228873 0
-0.028918 -0.00484002 0
-0.0284535 -0.00742727 0
-0.0277097 -0.0100394 0
-0.0266665 -0.0126595 0
-0.0253026 -0.0152625 0
-0.0235977 -0.017814 0
-0.0215365 -0.0202684 0
-0.0191119 -0.022568 0
-0.0163309 -0.0246385 0
-0.0132217 -0.0263634 0
-0.00984963 -0.0274747 0
-0.00636074 -0.0272001 0
-0.00309254 -0.0234652 0
-0.000786355 -0.0120476 0
-0.000716924 0.0121444 0
-0.00281207 0.0236172 0
-0.0057692 0.0273357 0
-0.00893142 0.0277278 0
-0.0120301 0.0269016 0
-0.0149639 0.0255751 0
-0.017689 0.0239576 0
-0.0201825 0.022121 0
-0.0224317 0.0201067 0
-0.0244315 0.0179473 0
-0.026182 0.01567 0
-0.0276867 0.0132969 0
-0.0289507 0.0108446 0
-0.0299792 0.00832442 0
-0.0307763 0.00574352 0
-0.0313432 0.0031053 0
-0.0316775 0.000410713 0
-0.0317726 -0.00234027 0
-0.0316163 -0.00514769 0
-0.0311911 -0.00800931 0
-0.0304738 -0.0109184 0
-0.0294366 -0.013861 0
-0.0280482 -0.0168135 0
-0.0262767 -0.0197394 0
-0.0240937 -0.0225871 0
-0.0214802 -0.0252873 0
-0.0184336 -0.0277468 0
-0.014979 -0.0298189 0
-0.0111898 -0.0311805 0
-0.00723844 -0.0309345 0
-0.00352173 -0.0267156 0
-0.000895556 -0.0137295 0
-0.000801368 0.0136627 0
-0.00313935 0.0265321 0
-0.0064302 0.0306689 0
-0.00993542 0.0310621 0
-0.0133526 0.0300832 0
-0.016568 0.0285427 0
-0.019534 0.0266812 0
-0.0222282 0.024585 0
-0.0246411 0.0223048 0
-0.0267724 0.0198803 0
-0.0286281 0.0173432 0
-0.0302178 0.0147181 0
-0.0315526 0.0120222 0
-0.0326434 0.0092661 0
-0.0334988 0.00645423 0
-0.0341236 0.00358629 0
-0.0345179 0.000658387 0
-0.0346755 -0.00233524 0
-0.0345834 -0.00540111 0
-0.0342206 -0.00854395 0
-0.0335578 -0.0117638 0
-0.0325577 -0.0150528 0
-0.0311766 -0.0183912 0
-0.0293667 -0.0217431 0
-0.0270813 -0.0250517 0
-0.0242824 -0.0282351 0
-0.0209514 -0.0311766 0
-0.017105 -0.0336901 0
-0.0128236 -0.03538 0
-0.00831335 -0.0351966 0
-0.00404799 -0.0304356 0
-0.0010293 -0.0156544 0
-0.000902109 0.0153662 0
-0.0035282 0.0297926 0
-0.00721147 0.0343824 0
-0.0111148 0.0347571 0
-0.0148952 0.0335857 0
-0.0184242 0.0317847 0
-0.0216509 0.029632 0
-0.0245548 0.0272321 0
-0.0271317 0.0246476 0
-0.0293888 0.021926 0
-0.0313401 0.0191044 0
-0.0330036 0.01621 0
-0.0343986 0.0132601 0
-0.035543 0.0102634 0
-0.0364517 0.00722089 0
-0.0371344 0.00412719 0
-0.0375947 0.00097207 0
-0.0378282 -0.00225777 0
-0.0378214 -0.00557752 0
-0.0375502 -0.0090016 0
-0.0369789 -0.0125402 0
-0.0360599 -0.0161955 0
-0.0347337 -0.0199559 0
-0.0329319 -0.0237901 0
-0.0305822 -0.0276397 0
-0.0276179 -0.0314102 0
-0.0239934 -0.0349571 0
-0.0197074 -0.0380421 0
-0.0148437 -0.0401731 0
-0.00965038 -0.0401071 0
-0.00470355 -0.0347373 0
-0.00119562 -0.0178793 0
-0.001024 0.0172923 0
-0.00399619 0.0334648 0
-0.00814553 0.0385429 0
-0.0125139 0.0388684 0
-0.0167089 0.0374497 0
-0.0205857 0.0353264 0
-0.0240906 0.0328219 0
-0.0272079 0.0300633 0
-0.029942 0.0271276 0
-0.0323108 0.0240718 0
-0.0343397 0.0209388 0
-0.036058 0.0177575 0
-0.0374951 0.0145448 0
-0.0386784 0.0113064 0
-0.0396305 0.00803858 0
-0.0403677 0.00472944 0
-0.0408984 0.00136081 0
-0.0412213 -0.00209008 0
-0.0413239 -0.00564948 0
-0.04118 -0.0093447 0
-0.0407481 -0.0132003 0
-0.0399694 -0.0172333 0
-0.0387665 -0.0214471 0
-0.0370449 -0.0258222 0
-0.0346976 -0.0303047 0
-0.0316156 -0.0347916 0
-0.0277085 -0.0391074 0
-0.0229397 -0.0429465 0
-0.0173864 -0.0456855 0
-0.011347 -0.0458274 0
-0.00553714 -0.0397736 0
-0.00140657 -0.0204815 0
-0.00117414 0.0194904 0
-0.00456862 0.0376333 0
-0.00927821 0.0432333 0
-0.0141939 0.0434621 0
-0.018863 0.0417201 0
-0.0231221 0.039192 0
-0.026918 0.0362571 0
-0.0302437 0.033071 0
-0.0331176 0.0297279 0
-0.0355727 0.0262954 0
-0.0376501 0.0228215 0
-0.0393936 0.0193365 0
-0.0408458 0.0158552 0
-0.0420452 0.0123788 0
-0.0430243 0.00889737 0
-0.0438076 0.00539109 0
-0.0444099 0.0018322 0
-0.044835 -0.0018134 0
-0.0450732 -0.00558545 0
-0.0450983 -0.00952744 0
-0.0448648 -0.0136829 0
-0.0443035 -0.0180907 0
-0.0433184 -0.0227778 0
-0.0417841 -0.0277473 0
-0.0395483 -0.0329627 0
-0.0364412 -0.0383227 0
-0.032301 -0.0436236 0
-0.0270244 -0.0484758 0
-0.0206583 -0.0520757 0
-0.0135559 -0.0525791 0
-0.00662627 -0.0457614 0
-0.00168128 -0.0235693 0
-0.00136319 0.0220278 0
-0.00528279 0.0424101 0
-0.0106756 0.0485589 0
-0.0162405 0.0486171 0
-0.021451 0.0464447 0
-0.0261253 0.0434009 0
-0.0302156 0.0399344 0
-0.0337314 0.0362354 0
-0.036712 0.032418 0
-0.0392125 0.0285608 0
-0.0412947 0.0247157 0
-0.0430209 0.020912 0
-0.0444496 0.0171605 0
-0.0456328 0.0134561 0
-0.0466144 0.00978078 0
-0.0474287 0.00610524 0
-0.0480991 0.00239077 0
-0.0486363 -0.00140963 0
-0.0490362 -0.00535115 0
-0.0492762 -0.00949657 0
-0.0493103 -0.0139132 0
-0.0490627 -0.0186693 0
-0.0484205 -0.0238265 0
-0.047226 -0.0294273 0
-0.0452716 -0.0354728 0
-0.0423047 -0.0418866 0
-0.0380527 -0.0484518 0
-0.0322915 -0.0546852 0
-0.0249854 -0.0595384 0
-0.0165302 -0.0606741 0
-0.00810332 -0.0530229 0
-0.00205274 -0.0273034 0
-0.00160782 0.0249988 0
-0.00619557 0.0479464 0
-0.0124352 0.054655 0
-0.0187758 0.0544264 0
-0.0246018 0.0516718 0
-0.0297164 0.0479627 0
-0.0340878 0.0438342 0
-0.0377542 0.0395177 0
-0.0407868 0.0351489 0
-0.0432712 0.0308149 0
-0.0452961 0.0265687 0
-0.0469465 0.0224355 0
-0.0482995 0.0184187 0
-0.0494226 0.0145043 0
-0.0503725 0.0106641 0
-0.0511945 0.0068582 0
-0.0519221 0.0030358 0
-0.0525757 -0.000863852 0
-0.0531603 -0.00491242 0
-0.0536614 -0.00919412 0
-0.054039 -0.0138041 0
-0.0542182 -0.018847 0
-0.0540769 -0.0244324 0
-0.0534297 -0.0306632 0
-0.0520105 -0.0376105 0
-0.0494616 -0.0452648 0
-0.0453482 -0.0534391 0
-0.0392372 -0.0615702 0
-0.0309024 -0.0682944 0
-0.0207177 -0.0705582 0
-0.0102164 -0.0620669 0
-0.00258507 -0.0319412 0
-0.00193523 0.0285418 0
-0.00739675 0.0544526 0
-0.0147048 0.0616964 0
-0.0219768 0.0609977 0
-0.0284932 0.057443 0
-0.0340547 0.0528675 0
-0.0386653 0.0479114 0
-0.0424111 0.0428527 0
-0.0454104 0.0378459 0
-0.0477902 0.0329821 0
-0.0496729 0.0283092 0
-0.0511703 0.0238428 0
-0.0523803 0.0195744 0
-0.0533866 0.0154779 0
-0.0542591 0.0115129 0
-0.0550552 0.00762745 0
-0.0558196 0.00375863 0
-0.0565848 -0.000167913 0
-0.0573688 -0.00423979 0
-0.0581716 -0.00856281 0
-0.0589679 -0.0132615 0
-0.0596963 -0.018482 0
-0.0602416 -0.0243934 0
-0.0604082 -0.0311827 0
-0.0598833 -0.039035 0
-0.0581955 -0.048077 0
-0.0546932 -0.0582426 0
-0.0486055 -0.0689654 0
-0.0393091 -0.0785302 0
-0.0269569 -0.0828593 0
-0.0134767 -0.0737474 0
-0.00342128 -0.0379475 0
-0.00239224 0.0328693 0
-0.00903399 0.0622285 0
-0.017714 0.0699086 0
-0.0261028 0.0684463 0
-0.0333709 0.0637789 0
-0.0393469 0.0580691 0
-0.0441068 0.0520805 0
-0.0478136 0.0461362 0
-0.0506531 0.0404011 0
-0.0528057 0.0349593 0
-0.0544345 0.0298436 0
-0.0556808 0.025052 0
-0.0566638 0.0205582 0
-0.0574831 0.0163196 0
-0.058221 0.0122817 0
-0.0589461 0.00837977 0
-0.0597148 0.00453952 0
-0.0605733 0.000674888 0
-0.0615568 -0.00331513 0
-0.0626863 -0.00755517 0
-0.0639625 -0.0121966 0
-0.065355 -0.0174261 0
-0.0667818 -0.0234771 0
-0.0680738 -0.0306403 0
-0.0689138 -0.0392623 0
-0.0687467 -0.0497046 0
-0.0666785 -0.0621856 0
-0.0614472 -0.0763415 0
-0.0516833 -0.0902144 0
-0.0368286 -0.0983821 0
-0.0189844 -0.0895489 0
-0.00490851 -0.0462773 0
-0.00306396 0.0383255 0
-0.0113595 0.0717096 0
-0.021826 0.079574 0
-0.0315323 0.076876 0
-0.0395644 0.0706494 0
-0.0458472 0.0634573 0
-0.0505886 0.0561936 0
-0.0540697 0.0492111 0
-0.0565679 0.0426639 0
-0.0583295 0.0366106 0
-0.0595624 0.031054 0
-0.0604374 0.0259629 0
-0.0610932 0.0212861 0
-0.0616422 0.01696 0
-0.0621764 0.0129135 0
-0.0627731 0.00906966 0
-0.0634992 0.00534443 0
-0.0644146 0.00164395 0
-0.0655743 -0.00214107 0
-0.0670265 -0.00614753 0
-0.0688087 -0.0105457 0
-0.070941 -0.0155523 0
-0.0734099 -0.0214552 0
-0.0761314 -0.0286488 0
-0.0788709 -0.0376743 0
-0.0810949 -0.0492356 0
-0.0817356 -0.0640822 0
-0.0789363 -0.0824754 0
-0.0700986 -0.102682 0
-0.0529866 -0.117881 0
-0.0289367 -0.111944 0
-0.00785456 -0.0590404 0
-0.00411121 0.0455006 0
-0.01481 0.0835287 0
-0.0276014 0.0910128 0
-0.0387807 0.0863227 0
-0.0474619 0.0779159 0
-0.0538004 0.0688121 0
-0.0582294 0.0600093 0
-0.0611998 0.0518469 0
-0.0631039 0.0444303 0
-0.0642604 0.0377624 0
-0.064921 0.0317956 0
-0.0652812 0.0264565 0
-0.065493 0.0216601 0
-0.0656757 0.0173176 0
-0.0659254 0.0133398 0
-0.066323 0.00963774 0
-0.0669417 0.00612107 0
-0.0678523 0.00269342 0
-0.0691281 -0.00075505 0
-0.0708475 -0.00436202 0
-0.0730916 -0.00830483 0
-0.0759451 -0.0128075 0
-0.0794957 -0.0181804 0
-0.0838125 -0.0248853 0
-0.0888717 -0.0336391 0
-0.094365 -0.0455534 0
-0.0992915 -0.0621973 0
-0.101297 -0.085154 0
-0.0961209 -0.114017 0
-0.078451 -0.141328 0
-0.0466868 -0.144311 0
-0.0137735 -0.0806685 0
-0.00583258 0.0554444 0
-0.0200943 0.0985454 0
-0.0357743 0.104468 0
-0.0483366 0.0966095 0
-0.0572367 0.0852103 0
-0.0630992 0.0737188 0
-0.0667061 0.0631385 0
-0.0687264 0.0537084 0
-0.0696767 0.0454232 0