# vtk DataFile Version 2.0
Lid-driven cavity
ASCII
DATASET STRUCTURED_POINTS
DIMENSIONS 32 32 1
ORIGIN 0.015625 0.015625 0
SPACING 0.03125 0.03125 1
POINT_DATA 1024
SCALARS pressure double 1
LOOKUP_TABLE default
1.21097
1.1934
1.17934
1.17916
1.19725
1.23489
1.29201
1.36802
1.46224
1.57401
1.7026
1.84718
2.00671
2.17979
2.36461
2.55884
2.75962
2.9636
3.16697
3.36536
3.5541
3.7285
3.88418
4.01741
4.12548
4.20688
4.26155
4.29095
4.2982
4.28833
4.269
4.25173
1.22855
1.21067
1.20178
1.20676
1.22842
1.26791
1.32546
1.40084
1.49362
1.60328
1.72918
1.87054
2.02631
2.19511
2.37515
2.56415
2.75931
2.95739
3.1548
3.34733
3.5305
3.69985
3.85126
3.98125
4.08733
4.16826
4.22417
4.25668
4.26884
4.26516
4.25146
4.23447
1.24265
1.21864
1.20954
1.21639
1.24006
1.28091
1.33898
1.41409
1.50594
1.61415
1.7382
1.87739
2.03077
2.19706
2.37453
2.561
2.7537
2.9495
3.14491
3.3357
3.51739
3.68548
3.83583
3.96497
4.07046
4.15113
4.20726
4.24053
4.25389
4.25126
4.23695
4.21475
1.24157
1.21074
1.19935
1.20621
1.23069
1.27233
1.33081
1.40586
1.49723
1.60463
1.72768
1.86582
2.01824
2.18379
2.3609
2.54747
2.74081
2.93781
3.13493
3.32781
3.51175
3.68206
3.83433
3.96488
4.07115
4.15195
4.20764
4.24002
4.25207
4.24742
4.22971
4.20156
1.21841
1.18162
1.16746
1.1735
1.19807
1.24009
1.29888
1.37404
1.46535
1.57259
1.69553
1.83378
1.9867
2.15332
2.33224
2.5215
2.71851
2.92009
3.1225
3.32114
3.51097
3.68687
3.84399
3.97823
4.08673
4.16822
4.22313
4.25349
4.26254
4.25411
4.23184
4.19841
1.16889
1.12716
1.11038
1.11535
1.1397
1.18188
1.24096
1.31645
1.40812
1.51587
1.6396
1.77911
1.93396
2.10341
2.28625
2.48071
2.68432
2.89377
3.105
3.31307
3.51248
3.69747
3.86253
4.00293
4.11534
4.19827
4.25227
4.27977
4.28457
4.27113
4.2437
4.20563
1.09001
1.04414
1.02505
1.02896
1.05302
1.09533
1.15478
1.23084
1.3233
1.43218
1.55754
1.69936
1.85746
2.03134
2.22005
2.42203
2.63497
2.85547
3.07902
3.30028
3.51315
3.71106
3.88757
4.03705
4.15545
4.24092
4.29411
4.31804
4.31743
4.29779
4.26446
4.2218
0.979387
0.929895
0.908772
0.911733
0.935525
0.978009
1.03796
1.11481
1.20843
1.31895
1.4466
1.59159
1.75399
1.9336
2.12975
2.34119
2.56586
2.80035
3.03961
3.27792
3.50846
3.72367
3.91588
4.07817
4.20541
4.2951
4.34794
4.36769
4.36038
4.33307
4.29258
4.24457
0.83489
0.782063
0.75908
0.761183
0.784763
0.827472
0.887996
0.965775
1.06075
1.17319
1.3035
1.45213
1.61944
1.80553
2.01012
2.23233
2.47044
2.72136
2.97946
3.23866
3.49143
3.72906
3.9423
4.12246
4.26273
4.35947
4.41314
4.42833
4.41282
4.37579
4.32611
4.27103
0.654495
0.598438
0.57366
0.57493
0.598292
0.641196
0.702252
0.780908
0.877184
0.991465
1.12435
1.27652
1.44863
1.64117
1.85426
2.08751
2.33972
2.60849
2.8878
3.1714
3.45116
3.71714
3.95821
4.16327
4.32296
4.4316
4.48875
4.49969
4.47433
4.42483
4.36286
4.29784
0.436186
0.376872
0.350262
0.350634
0.373668
0.416603
0.477955
0.557166
0.65431
0.769876
0.904619
1.05945
1.23531
1.43308
1.65339
1.89644
2.16176
2.44789
2.74936
3.05981
3.37097
3.67186
3.94927
4.18893
4.37777
4.50656
4.57265
4.58126
4.54472
4.47921
4.40056
4.32127
0.177923
0.115226
0.0866562
0.0859684
0.108445
0.151079
0.212256
0.291371
0.388504
0.504195
0.639301
0.794893
0.972183
1.17243
1.3968
1.64625
1.92121
2.22132
2.5433
2.88082
3.22639
3.56866
3.89242
4.17964
4.41199
4.57451
4.65986
4.67149
4.62379
4.53823
4.43691
4.33718
-0.12237
-0.188657
-0.219387
-0.221379
-0.199799
-0.157958
-0.0976628
-0.0196373
0.0761215
0.190111
0.323181
0.476463
0.651325
0.849336
1.07221
1.32173
1.59949
1.90663
2.24293
2.60361
2.98342
3.37191
3.75267
4.10367
4.39969
4.61702
4.7398
4.76613
4.71071
4.60137
4.46967
4.34099
-0.466814
-0.536971
-0.570118
-0.573702
-0.553416
-0.512963
-0.454433
-0.37878
-0.286202
-0.176393
-0.0486785
0.0979416
0.2648
0.453613
0.666536
0.9062
1.17565
1.47811
1.8163
2.18996
2.5981
3.03359
3.48058
3.91372
4.29969
4.6025
4.79221
4.85537
4.80267
4.66805
4.49677
4.32778
-0.85759
-0.931988
-0.967828
-0.973269
-0.954636
-0.916142
-0.860299
-0.78844
-0.701141
-0.598499
-0.48026
-0.345842
-0.194256
-0.023947
0.16743
0.383271
0.628203
0.908012
1.22898
1.59695
2.01878
2.49445
3.01209
3.54514
4.05217
4.48156
4.78234
4.92008
4.89278
4.73716
4.51661
4.29251
-1.297
-1.37612
-1.41492
-1.42234
-1.40552
-1.36933
-1.31689
-1.25011
-1.17019
-1.07789
-0.97371
-0.857866
-0.73016
-0.58967
-0.434302
-0.260205
-0.0611898
0.171578
0.449199
0.78348
1.1921
1.6896
2.27278
2.91817
3.57838
4.18437
4.65676
4.92751
4.96739
4.80649
4.52877
4.23092
-1.78759
-1.87209
-1.91401
-1.92326
-1.90794
-1.87386
-1.82499
-1.76405
-1.69314
-1.61402
-1.52834
-1.43758
-1.34291
-1.24466
-1.14165
-1.03016
-0.902765
-0.747423
-0.547403
-0.282869
0.0731188
0.559253
1.18819
1.94651
2.78632
3.62257
4.3419
4.82808
5.00344
4.87239
4.53566
4.14142
-2.3324
-2.42316
-2.46819
-2.47857
-2.46368
-2.43057
-2.38436
-2.32893
-2.26758
-2.20343
-2.13968
-2.07963
-2.0264
-1.98237
-1.94812
-1.92091
-1.8928
-1.84883
-1.76604
-1.61429
-1.35942
-0.935074
-0.299254
0.553576
1.5844
2.69879
3.74846
4.55564
4.96727
4.93025
4.54561
4.02886
-2.93533
-3.03356
-3.08138
-3.09132
-3.07453
-3.03973
-2.99364
-2.94163
-2.88854
-2.83921
-2.79879
-2.77286
-2.76714
-2.7868
-2.83513
-2.91148
-3.00853
-3.10933
-3.18512
-3.19513
-3.09055
-2.79235
-2.20873
-1.30438
-0.0961477
1.32539
2.78433
4.03404
4.81719
4.97734
4.57867
3.9116
-3.6018
-3.70916
-3.7589
-3.76552
-3.7426
-3.70127
-3.65035
-3.59715
-3.54839
-3.5109
-3.4921
-3.50018
-3.54394
-3.63198
-3.77118
-3.96411
-4.20548
-4.47793
-4.74818
-4.96513
-5.06224
-4.95466
-4.49921
-3.61227
-2.27298
-0.548064
1.37739
3.19271
4.51268
5.02008
4.67688
3.83445
-4.33975
-4.45853
-4.50841
-4.50675
-4.47076
-4.41495
-4.35103
-4.28874
-4.23699
-4.20478
-4.20191
-4.23933
-4.32908
-4.48355
-4.71375
-5.02642
-5.41971
-5.87781
-6.36532
-6.82312
-7.16839
-7.30077
-7.05536
-6.27482
-4.88483
-2.90321
-0.493623
1.99213
4.03251
5.08873
4.92218
3.8915
-5.16125
-5.2945
-5.34115
-5.3231
-5.26309
-5.18066
-5.09146
-5.00821
-4.94223
-4.90472
-4.90772
-4.96476
-5.09097
-5.30235
-5.61415
-6.03767
-6.5755
-7.21522
-7.92226
-8.63339
-9.2536
-9.66024
-9.68816
-9.10926
-7.7742
-5.62609
-2.76633
0.45654
3.40278
5.26196
5.46558
4.26443
-6.08512
-6.2368
-6.27398
-6.22631
-6.12554
-5.99871
-5.86682
-5.7462
-5.65065
-5.59329
-5.58801
-5.65039
-5.79797
-6.04981
-6.42475
-6.93833
-7.59779
-8.39529
-9.29969
-10.2482
-11.1399
-11.8355
-12.1597
-11.8614
-10.6914
-8.49636
-5.27002
-1.29276
2.73164
5.70168
6.5703
5.28105
-7.14157
-7.31624
-7.33215
-7.23325
-7.06629
-6.86967
-6.67157
-6.49238
-6.3481
-6.25313
-6.22238
-6.27256
-6.42267
-6.69365
-7.1068
-7.68073
-8.42651
-9.34094
-10.3979
-11.5386
-12.6635
-13.6263
-14.2359
-14.2472
-13.3267
-11.2026
-7.72019
-3.01357
2.24388
6.6938
8.66741
7.4957
-8.38056
-8.58196
-8.55356
-8.36723
-8.09534
-7.79331
-7.49837
-7.2348
-7.01974
-6.8676
-6.79301
-6.81254
-6.94532
-7.2127
-7.63684
-8.23796
-9.02961
-10.0119
-11.163
-12.4298
-13.7182
-14.8851
-15.7337
-16.0136
-15.3677
-13.3859
-9.73881
-4.33718
2.30565
8.68573
12.4161
11.7879
-9.88867
-10.1141
-9.99435
-9.65813
-9.22184
-8.76512
-8.33492
-7.95749
-7.64854
-7.42017
-7.28479
-7.25721
-7.35523
-7.5993
-8.01131
-8.61161
-9.41424
-10.4204
-11.6104
-12.9345
-14.3037
-15.5813
-16.5758
-17.0285
-16.5748
-14.7006
-10.8969
-4.78333
3.43228
12.308
18.7543
19.4722
-11.8249
-12.0462
-11.7346
-11.1375
-10.4451
-9.76704
-9.15602
-8.63412
-8.2103
-7.89045
-7.68211
-7.59631
-7.64792
-7.85556
-8.23975
-8.81956
-9.60787
-10.6049
-11.7904
-13.1151
-14.4915
-15.7861
-16.8116
-17.3116
-16.8822
-14.9331
-10.7798
-3.7901
6.27729
18.3673
28.9198
32.4136
-14.5035
-14.6038
-13.8753
-12.8167
-11.7295
-10.7454
-9.90548
-9.21349
-8.66177
-8.2442
-7.95964
-7.81295
-7.81538
-7.98289
-8.33369
-8.88448
-9.64558
-10.6145
-11.768
-13.0538
-14.3814
-15.6136
-16.558
-16.9532
-16.3477
-14.0538
-9.20015
-0.870575
11.5963
27.7977
44.4123
53.1497
-18.6006
-18.1505
-16.4892
-14.6147
-12.9411
-11.5617
-10.4589
-9.59106
-8.91759
-8.41147
-8.0605
-7.86332
-7.82682
-7.9635
-8.28837
-8.81485
-9.54959
-10.4858
-11.5956
-12.8204
-14.0623
-15.173
-15.9423
-16.0821
-15.0799
-12.1089
-6.10782
4.14674
19.8744
41.5446
66.8225
85.0178
-25.6885
-23.1291
-19.3848
-16.1479
-13.7034
-11.8988
-10.5549
-9.54606
-8.79059
-8.23786
-7.86127
-7.65108
-7.60905
-7.74397
-8.06753
-8.58964
-9.31279
-10.2253
-11.2928
-12.4491
-13.5849
-14.5346
-15.0596
-14.8231
-13.2181
-9.26866
-1.717
11.0164
30.8687
59.7917
97.5785
132.17
-39.4483
-29.16
-21.2682
-16.2115
-13.0508
-11.0117
-9.63419
-8.66814
-7.98034
-7.50034
-7.19384
-7.04822
-7.06406
-7.24925
-7.61415
-8.16652
-8.90576
-9.81583
-10.8565
-11.9534
-12.9852
-13.7669
-14.0249
-13.3586
-11.0517
-6.04125
3.10293
18.3541
42.6057
80.4159
138.302
209.25
-72.3217
-31.0833
-17.1125
-11.7647
-9.3213
-8.00621
-7.20401
-6.67604
-6.32259
-6.10185
-6.00001
-6.01843
-6.16701
-6.45976
-6.91071
-7.52955
-8.31616
-9.2537
-10.2999
-11.3769
-12.3569
-13.0429
-13.1371
-12.1825
-9.43827
-3.82684
6.16762
22.7741
49.6994
94.5809
177.508
350.321
VECTORS velocity double
1.92028e-05 -1.92028e-05 0
-5.66784e-05 9.5084e-05 0
-0.000363475 0.000211713 0
-0.000870361 0.000295173 0
-0.00151131 0.000345779 0
-0.00222932 0.000372232 0
-0.00298434 0.000382788 0
-0.00375013 0.000383 0
-0.00450882 0.000375688 0
-0.00524607 0.000361559 0
-0.00594755 0.000339926 0
-0.00659683 0.000309348 0
-0.00717436 0.000268185 0
-0.00765761 0.000215065 0
-0.00802198 0.00014931 0
-0.00824259 7.12912e-05 0
-0.00829647 -1.74074e-05 0
-0.00816469 -0.000114368 0
-0.0078354 -0.000214925 0
-0.00730786 -0.000312613 0
-0.00659539 -0.000399856 0
-0.00572684 -0.0004687 0
-0.00474635 -0.000511785 0
-0.00371111 -0.000523455 0
-0.00268683 -0.000500826 0
-0.00174147 -0.000444532 0
-0.000937961 -0.000358982 0
-0.000326835 -0.000252144 0
6.06568e-05 -0.000135348 0
0.000220308 -2.43032e-05 0
0.000187864 5.67465e-05 0
6.55587e-05 6.55585e-05 0
-9.94131e-05 6.10075e-05 0
-0.000556904 0.000548246 0
-0.00150843 0.00101688 0
-0.00287249 0.00136095 0
-0.00452997 0.00157843 0
-0.00636962 0.00169725 0
-0.00830335 0.00174651 0
-0.0102653 0.00174701 0
-0.0122049 0.00170997 0
-0.0140791 0.00163874 0
-0.0158461 0.00153119 0
-0.017461 0.00138227 0
-0.0188743 0.00118618 0
-0.0200323 0.000938315 0
-0.0208789 0.000637003 0
-0.0213596 0.000284875 0
-0.0214264 -0.000110336 0
-0.0210433 -0.000536314 0
-0.0201927 -0.00097278 0
-0.0188819 -0.00139311 0
-0.0171472 -0.00176655 0
-0.0150566 -0.00206112 0
-0.0127092 -0.00224727 0
-0.0102303 -0.00230218 0
-0.0077627 -0.00221396 0
-0.00545463 -0.00198482 0
-0.00344429 -0.00163255 0
-0.00184374 -0.00119025 0
-0.000722724 -0.000705755 0
-9.23002e-05 -0.000243971 0
0.000113582 0.000102976 0
6.20493e-05 0.000193166 0
-0.000238153 0.000398574 0
-0.00111187 0.00154189 0
-0.00269903 0.00256192 0
-0.004833 0.00331393 0
-0.00735014 0.00380006 0
-0.010107 0.00407215 0
-0.0129873 0.00418565 0
-0.0158992 0.0041817 0
-0.0187678 0.00408344 0
-0.0215267 0.00389837 0
-0.0241112 0.00362306 0
-0.026454 0.00324811 0
-0.0284831 0.0027628 0
-0.0301227 0.00215931 0
-0.0312965 0.00143633 0
-0.0319322 0.00060198 0
-0.0319687 -0.000324228 0
-0.0313631 -0.00131106 0
-0.0300991 -0.00231257 0
-0.0281925 -0.00327074 0
-0.0256968 -0.00411938 0
-0.0227058 -0.00478982 0
-0.0193534 -0.00521847 0
-0.0158076 -0.00535572 0
-0.0122607 -0.0051749 0
-0.00891291 -0.00467968 0
-0.00595274 -0.0039082 0
-0.00353428 -0.0029336 0
-0.00175519 -0.00186251 0
-0.000636597 -0.00083624 0
-0.000106322 -4.09122e-05 0
1.35244e-05 0.00026874 0
-0.000362927 0.000999654 0
-0.00162015 0.00307175 0
-0.00379342 0.00479248 0
-0.00661805 0.00604198 0
-0.00988087 0.00685198 0
-0.013411 0.00730726 0
-0.017073 0.00749285 0
-0.0207582 0.00747158 0
-0.0243752 0.00727909 0
-0.0278409 0.00692736 0
-0.031074 0.00641169 0
-0.0339902 0.00571846 0
-0.0365012 0.00483255 0
-0.038516 0.00374401 0
-0.0399445 0.00245383 0
-0.0407029 0.000978694 0
-0.0407218 -0.000645664 0
-0.0399541 -0.00236282 0
-0.0383833 -0.00409568 0
-0.0360287 -0.00574877 0
-0.0329523 -0.00721354 0
-0.029262 -0.00837683 0
-0.0251134 -0.00913258 0
-0.0207044 -0.00939634 0
-0.0162651 -0.00912052 0
-0.012039 -0.00830791 0
-0.00825875 -0.00702042 0
-0.00511755 -0.00538105 0
-0.00274133 -0.00357037 0
-0.0011657 -0.00182261 0
-0.000321741 -0.00042877 0
-3.36273e-05 0.000248636 0
-0.000468838 0.00183142 0
-0.00206034 0.00508872 0
-0.00475289 0.00764133 0
-0.0081882 0.00945307 0
-0.0121019 0.0106174 0
-0.0162965 0.0112665 0
-0.0206211 0.0115202 0
-0.0249559 0.0114642 0
-0.0291992 0.0111467 0
-0.0332574 0.0105837 0
-0.0370379 0.00976894 0
-0.0404452 0.00868473 0
-0.0433799 0.00731199 0
-0.0457401 0.00563953 0
-0.0474253 0.00367198 0
-0.0483427 0.00143637 0
-0.0484143 -0.00101288 0
-0.0475861 -0.00359149 0
-0.0458345 -0.00618948 0
-0.0431728 -0.00867118 0
-0.0396593 -0.0108811 0
-0.0354041 -0.0126546 0
-0.0305735 -0.013834 0
-0.0253881 -0.0142892 0
-0.0201133 -0.0139418 0
-0.0150392 -0.0127869 0
-0.010451 -0.01091 0
-0.00659187 -0.00849176 0
-0.00362681 -0.00580094 0
-0.00161337 -0.00318112 0
-0.000487337 -0.00104026 0
-6.51689e-05 0.00014984 0
-0.000557944 0.0028582 0
-0.00243562 0.00753112 0
-0.00557933 0.0110352 0
-0.00954874 0.0134639 0
-0.0140317 0.0150032 0
-0.0188055 0.0158491 0
-0.0237066 0.0161633 0
-0.0286079 0.0160573 0
-0.0334024 0.0155915 0
-0.037991 0.0147857 0
-0.0422754 0.0136318 0
-0.0461537 0.0121075 0
-0.0495194 0.0101896 0
-0.0522628 0.00786549 0
-0.0542749 0.00514338 0
-0.0554529 0.00206035 0
-0.0557074 -0.0013108 0
-0.05497 -0.0048591 0
-0.0532 -0.0084435 0
-0.0503909 -0.011888 0
-0.0465821 -0.0149866 0
-0.0418708 -0.0175156 0
-0.0364217 -0.0192527 0
-0.0304713 -0.0200063 0
-0.0243214 -0.0196494 0
-0.0183191 -0.0181556 0
-0.0128208 -0.0156279 0
-0.00814342 -0.0123103 0
-0.00451334 -0.00857754 0
-0.00202434 -0.00490695 0
-0.000617462 -0.00184733 0
-8.36947e-05 9.76182e-07 0
-0.000633182 0.00404933 0
-0.00275488 0.0103394 0
-0.00628751 0.0149033 0
-0.0107219 0.0179996 0
-0.0157043 0.0199329 0
-0.0209903 0.0209792 0
-0.0264066 0.0213506 0
-0.0318224 0.0211872 0
-0.0371295 0.0205632 0
-0.0422286 0.0195018 0
-0.0470204 0.017992 0
-0.0514013 0.0160064 0
-0.0552613 0.0135164 0
-0.0584855 0.0105063 0
-0.0609566 0.00698577 0
-0.0625596 0.00299892 0
-0.0631876 -0.00136691 0
-0.062749 -0.00597887 0
-0.0611723 -0.0106704 0
-0.0584145 -0.015228 0
-0.054477 -0.0193929 0
-0.0494249 -0.0228727 0
-0.0434051 -0.0253644 0
-0.0366597 -0.0265905 0
-0.0295265 -0.0263482 0
-0.0224221 -0.0245636 0
-0.0157995 -0.0213409 0
-0.010085 -0.0169891 0
-0.00560273 -0.0120111 0
-0.00250928 -0.00705587 0
-0.000758238 -0.00285633 0
-9.9657e-05 -0.000182376 0
-0.000696932 0.00537944 0
-0.00302659 0.0134606 0
-0.00689363 0.0191817 0
-0.0117324 0.0229943 0
-0.0171553 0.0253435 0
-0.0229007 0.0266 0
-0.0287891 0.0270345 0
-0.0346901 0.02682 0
-0.0404986 0.0260461 0
-0.0461199 0.0247393 0
-0.051459 0.0228854 0
-0.0564149 0.0204499 0
-0.0608785 0.0173965 0
-0.0647313 0.0137033 0
-0.0678476 0.00937621 0
-0.0700966 0.00446045 0
-0.0713469 -0.000950122 0
-0.0714721 -0.00670903 0
-0.0703552 -0.0126339 0
-0.0678974 -0.0184801 0
-0.0640403 -0.0239355 0
-0.0587931 -0.0286294 0
-0.0522637 -0.0321569 0
-0.0446835 -0.0341237 0
-0.0364205 -0.0342112 0
-0.0279689 -0.0322567 0
-0.0199058 -0.0283334 0
-0.0128113 -0.0228056 0
-0.00716051 -0.0163277 0
-0.00321811 -0.00977511 0
-0.000972505 -0.00413374 0
-0.000127007 -0.00040904 0
-0.000750792 0.00682717 0
-0.00325704 0.0168488 0
-0.00741069 0.0238142 0
-0.0126009 0.0283908 0
-0.0184138 0.0311828 0
-0.0245758 0.0326681 0
-0.0309055 0.0331845 0
-0.0372768 0.0329423 0
-0.043593 0.0320486 0
-0.049769 0.030534 0
-0.0557195 0.0283801 0
-0.0613517 0.0255433 0
-0.0665608 0.0219757 0
-0.0712273 0.0176434 0
-0.0752161 0.0125412 0
-0.0783767 0.00670509 0
-0.0805446 0.000223465 0
-0.0815461 -0.00675595 0
-0.0812031 -0.0140469 0
-0.0793427 -0.0213852 0
-0.0758225 -0.0284077 0
-0.0705711 -0.0346558 0
-0.063631 -0.0396 0
-0.0552 -0.0426918 0
-0.04566 -0.043446 0
-0.0355816 -0.0415518 0
-0.0256868 -0.0369961 0
-0.0167572 -0.0301671 0
-0.00948801 -0.0218862 0
-0.00432282 -0.0133242 0
-0.00133147 -0.00582162 0
-0.000181044 -0.00071709 0
-0.000795612 0.00837357 0
-0.00344996 0.020463 0
-0.0078469 0.0287506 0
-0.0133407 0.0341385 0
-0.0194982 0.0374055 0
-0.0260391 0.0391483 0
-0.0327846 0.0397794 0
-0.0396177 0.0395518 0
-0.0464549 0.0385926 0
-0.0532264 0.0369376 0
-0.0598627 0.0345633 0
-0.0662846 0.0314141 0
-0.0723962 0.0274255 0
-0.0780792 0.0225431 0
-0.0831882 0.0167393 0
-0.0875477 0.0100271 0
-0.0909515 0.0024732 0
-0.0931657 -0.00579002 0
-0.0939373 -0.0145842 0
-0.0930032 -0.0236425 0
-0.0901172 -0.0325565 0
-0.0851023 -0.0407733 0
-0.0779081 -0.0476168 0
-0.0686689 -0.0523452 0
-0.0577528 -0.0542487 0
-0.0457884 -0.052792 0
-0.0336468 -0.0477923 0
-0.0223511 -0.0395962 0
-0.0128962 -0.0291811 0
-0.00600458 -0.0180861 0
-0.00190953 -0.00814608 0
-0.000277228 -0.00117536 0
-0.000831607 0.0100008 0
-0.00360665 0.0242652 0
-0.00820551 0.0339442 0
-0.0139569 0.0401901 0
-0.0204148 0.0439693 0
-0.0272969 0.0460075 0
-0.0344311 0.0467999 0
-0.0417141 0.0466474 0
-0.0490806 0.0457008 0
-0.0564823 0.0440026 0
-0.0638711 0.0415234 0
-0.0711874 0.0381922 0
-0.0783489 0.0339205 0
-0.0852406 0.0286228 0
-0.0917059 0.0222339 0
-0.0975396 0.0147257 0
-0.102485 0.00612355 0
-0.106236 -0.00347535 0
-0.108454 -0.013909 0
-0.108778 -0.0249279 0
-0.106845 -0.0360899 0
-0.102354 -0.0467457 0
-0.0951357 -0.0560571 0
-0.085226 -0.063054 0
-0.0729383 -0.0667436 0
-0.05892 -0.0662797 0
-0.0441682 -0.061198 0
-0.0299647 -0.0516897 0
-0.0176805 -0.0388266 0
-0.00844421 -0.0245686 0
-0.00278159 -0.0114213 0
-0.000430737 -0.00188333 0
-0.000858522 0.0116909 0
-0.00372649 0.028218 0
-0.00848565 0.0393494 0
-0.0144477 0.0464985 0
-0.021159 0.0508301 0
-0.0283389 0.0532087 0
-0.0358258 0.0542197 0
-0.0435335 0.0542182 0
-0.05142 0.0533829 0
-0.059463 0.0517651 0
-0.0676421 0.0493288 0
-0.0759222 0.0459832 0
-0.0842386 0.0416074 0
-0.0924822 0.0360711 0
-0.100485 0.0292536 0
-0.108009 0.0210636 0
-0.114741 0.011463 0
-0.120298 0.000492736 0
-0.124247 -0.0117092 0
-0.126129 -0.0249217 0
-0.125468 -0.0386905 0
-0.121827 -0.0522768 0
-0.114897 -0.064674 0
-0.104582 -0.0746624 0
-0.0910871 -0.0809175 0
-0.0750164 -0.0821949 0
-0.0574357 -0.0776153 0
-0.0398633 -0.0670483 0
-0.0240978 -0.0515176 0
-0.0118172 -0.0333945 0
-0.004024 -0.0160512 0
-0.000657104 -0.00297117 0
-0.000875861 0.0134253 0
-0.00380785 0.0322836 0
-0.00868396 0.0449191 0
-0.0148064 0.0530133 0
-0.0217178 0.0579379 0
-0.0291418 0.0607048 0
-0.036929 0.0619976 0
-0.0450133 0.0622323 0
-0.0533785 0.0616205 0
-0.0620326 0.0602247 0
-0.0709864 0.058002 0
-0.0802334 0.0548371 0
-0.0897301 0.0505667 0
-0.0993756 0.0450009 0
-0.108992 0.0379431 0
-0.118311 0.0292167 0
-0.126965 0.0186963 0
-0.134496 0.00634734 0
-0.140376 -0.00773392 0
-0.144053 -0.0233381 0
-0.144955 -0.0400343 0
-0.142516 -0.0570128 0
-0.136274 -0.073109 0
-0.125966 -0.0868508 0
-0.111635 -0.0965551 0
-0.0937563 -0.100507 0
-0.0733698 -0.0972706 0
-0.052156 -0.0861793 0
-0.0323435 -0.0679646 0
-0.0162914 -0.0452802 0
-0.00571861 -0.0225316 0
-0.000974007 -0.00460228 0
-0.000883211 0.0151844 0
-0.00384928 0.0364226 0
-0.00879704 0.0506039 0
-0.0150255 0.0596793 0
-0.0220755 0.0652333 0
-0.0296753 0.0684333 0
-0.0376883 0.0700693 0
-0.0460686 0.0706253 0
-0.054827 0.0703511 0
-0.0640026 0.0693238 0
-0.073639 0.067493 0
-0.0837601 0.0647142 0
-0.0943461 0.0607723 0
-0.105308 0.0554023 0
-0.116463 0.0483136 0
-0.12752 0.0392222 0
-0.138071 0.0278952 0
-0.147595 0.0142041 0
-0.155487 -0.00181822 0
-0.161113 -0.0199516 0
-0.16382 -0.0398117 0
-0.16294 -0.0605548 0
-0.15786 -0.0808886 0
-0.148126 -0.0991132 0
-0.133558 -0.113192 0
-0.114411 -0.120896 0
-0.0915693 -0.120109 0
-0.0667435 -0.10938 0
-0.0425191 -0.0888004 0
-0.0220199 -0.0609956 0
-0.00795686 -0.031452 0
-0.0014035 -0.00697978 0
-0.000880644 0.0169482 0
-0.00385109 0.0405953 0
-0.00882461 0.0563526 0
-0.015101 0.0664355 0
-0.0222193 0.0726454 0
-0.0299107 0.0763125 0
-0.0380489 0.0783413 0
-0.0466065 0.0792911 0
-0.0556186 0.0794558 0
-0.0651537 0.0789299 0
-0.0752864 0.077656 0
-0.0860705 0.0754565 0
-0.0975108 0.0720563 0
-0.109535 0.067104 0
-0.121968 0.0601998 0
-0.134511 0.0509368 0
-0.146738 0.0389578 0
-0.158096 0.0240248 0
-0.167935 0.00609237 0
-0.175546 -0.0146264 0
-0.180221 -0.0377543 0
-0.181231 -0.0624822 0
-0.177831 -0.0874417 0
-0.169365 -0.11076 0
-0.155385 -0.130093 0
-0.135825 -0.142703 0
-0.111265 -0.145703 0
-0.0832581 -0.136619 0
-0.0545835 -0.114461 0
-0.0291192 -0.0812985 0
-0.0108381 -0.0434933 0
-0.00197336 -0.0103566 0
-0.000869208 0.0186981 0
-0.00381721 0.0447639 0
-0.00877337 0.0621137 0
-0.0150391 0.0732165 0
-0.0221484 0.0800921 0
-0.0298315 0.0842403 0
-0.037968 0.0866882 0
-0.0465436 0.0880773 0
-0.0556131 0.0887511 0
-0.0652686 0.0888252 0
-0.0756109 0.0882357 0
-0.0867203 0.0867703 0
-0.0986274 0.0840898 0
-0.111283 0.0797506 0
-0.124534 0.0732365 0
-0.1381 0.0640099 0
-0.151569 0.0515802 0
-0.164397 0.0355884 0
-0.175925 0.0158961 0
-0.185411 -0.00733379 0
-0.192116 -0.033666 0
-0.195283 -0.0623932 0
-0.194074 -0.0921413 0
-0.187647 -0.120953 0
-0.175259 -0.146268 0
-0.156438 -0.164909 0
-0.1313 -0.173194 0
-0.101012 -0.167424 0
-0.0682917 -0.145051 0
-0.0376302 -0.106835 0
-0.0144587 -0.0594098 0
-0.00271676 -0.0150468 0
-0.000851478 0.0204188 0
-0.00375738 0.0488971 0
-0.00866134 0.0678405 0
-0.0148622 0.0799562 0
-0.021883 0.0874825 0
-0.029446 0.092096 0
-0.0374305 0.0949535 0
-0.0458285 0.0967857 0
-0.0547067 0.0979904 0
-0.0641728 0.0987076 0
-0.0743463 0.0988691 0
-0.0853293 0.0982293 0
-0.0971777 0.0963863 0
-0.109874 0.0928061 0
-0.123301 0.0868594 0
-0.137228 0.07788 0
-0.151294 0.0652441 0
-0.165008 0.0484658 0
-0.177759 0.0272981 0
-0.188836 0.00182737 0
-0.197491 -0.0274669 0
-0.202955 -0.0599603 0
-0.204371 -0.0943687 0
-0.200753 -0.128769 0
-0.191063 -0.160531 0
-0.174362 -0.186169 0
-0.150156 -0.201277 0
-0.118974 -0.200812 0
-0.0831435 -0.180213 0
-0.0474713 -0.138006 0
-0.0188941 -0.0799873 0
-0.00367091 -0.0214344 0
-0.000832188 0.0221024 0
-0.00368952 0.0529766 0
-0.00852258 0.073498 0
-0.0146166 0.0865935 0
-0.0214731 0.0947224 0
-0.0287988 0.0997449 0
-0.0364652 0.102956 0
-0.0444629 0.10518 0
-0.0528618 0.106874 0
-0.0617763 0.108205 0
-0.0713359 0.109105 0
-0.0816582 0.109299 0
-0.0928235 0.10833 0
-0.104851 0.105586 0
-0.117679 0.100336 0
-0.131149 0.0917998 0
-0.14499 0.0792314 0
-0.158819 0.062021 0
-0.17213 0.0398047 0
-0.184302 0.0125702 0
-0.194608 -0.0192491 0
-0.202325 -0.0549962 0
-0.206645 -0.0935967 0
-0.206505 -0.1333 0
-0.200606 -0.171589 0
-0.187526 -0.204891 0
-0.166044 -0.228243 0
-0.135805 -0.235267 0
-0.0983641 -0.21903 0
-0.0584005 -0.174824 0
-0.0241806 -0.105966 0
-0.00487709 -0.0299824 0
-0.000818981 0.0237536 0
-0.00364253 0.0570064 0
-0.00841243 0.0790712 0
-0.014379 0.0930808 0
-0.0210081 0.101721 0
-0.0279819 0.107046 0
-0.0351577 0.110496 0
-0.0425185 0.112997 0
-0.0501301 0.115066 0
-0.0581052 0.116902 0
-0.0665757 0.118438 0
-0.0756685 0.119381 0
-0.0854859 0.119231 0
-0.0960875 0.117314 0
-0.107476 0.112824 0
-0.119583 0.104889 0
-0.132261 0.0926624 0
-0.14527 0.075427 0
-0.158264 0.0527034 0
-0.170781 0.0243608 0
-0.182229 -0.00928549 0
-0.191965 -0.0475069 0
-0.199251 -0.0894799 0
-0.203044 -0.133764 0
-0.20188 -0.178187 0
-0.193886 -0.219367 0
-0.177055 -0.25208 0
-0.149944 -0.268779 0
-0.11293 -0.259973 0
-0.0700006 -0.216775 0
-0.0303058 -0.13793 0
-0.00638382 -0.0412433 0
-0.000823414 0.025396 0
-0.00365975 0.0610238 0
-0.00841341 0.0845773 0
-0.0142643 0.0993921 0
-0.0206238 0.108398 0
-0.0271415 0.11386 0
-0.0336576 0.117374 0
-0.0401453 0.119968 0
-0.0466627 0.122224 0
-0.0533163 0.124373 0
-0.0602345 0.126356 0
-0.0675491 0.12787 0
-0.0753811 0.128391 0
-0.0838301 0.127205 0
-0.0929659 0.123457 0
-0.102821 0.116218 0
-0.113383 0.104573 0
-0.124581 0.0877233 0
-0.136274 0.0650941 0
-0.148223 0.0364368 0
-0.160063 0.0019265 0
-0.17129 -0.037756 0
-0.181286 -0.0819493 0
-0.18914 -0.129648 0
-0.193345 -0.179262 0
-0.191675 -0.227955 0
-0.18136 -0.270639 0
-0.159735 -0.298956 0
-0.125631 -0.300913 0
-0.0816878 -0.262708 0
-0.0372077 -0.176172 0
-0.00825196 -0.0558791 0
-0.000862531 0.0270819 0
-0.00380403 0.0651157 0
-0.00864276 0.0900778 0
-0.0144328 0.105533 0
-0.0205076 0.114692 0
-0.0264803 0.120057 0
-0.0321778 0.123391 0
-0.037568 0.125829 0
-0.0427042 0.128017 0
-0.0476869 0.130216 0
-0.0526404 0.132384 0
-0.057699 0.134216 0
-0.0629999 0.135178 0
-0.0686793 0.134546 0
-0.0748712 0.131444 0
-0.0817048 0.12492 0
-0.0893012 0.114029 0
-0.0977668 0.0979312 0
-0.10718 0.0759922 0
-0.117565 0.0478731 0
-0.128844 0.0136088 0
-0.140744 -0.026311 0
-0.152854 -0.0712888 0
-0.16448 -0.120828 0
-0.174217 -0.17414 0
-0.179665 -0.229299 0
-0.177417 -0.281859 0
-0.16358 -0.323199 0
-0.135152 -0.339202 0
-0.0927336 -0.31078 0
-0.044775 -0.220538 0
-0.0105564 -0.0746875 0
-0.000961608 0.0289061 0
-0.0041657 0.0694372 0
-0.00926294 0.0956923 0
-0.0150986 0.111544 0
-0.0209018 0.120559 0
-0.0262541 0.125515 0
-0.0309837 0.128359 0
-0.0350679 0.130335 0
-0.0385662 0.132146 0
-0.0415805 0.134085 0
-0.0442349 0.136124 0
-0.0466677 0.137967 0
-0.0490309 0.139091 0
-0.0514936 0.138776 0
-0.054246 0.136158 0
-0.0575022 0.130295 0
-0.0615017 0.120249 0
-0.0665082 0.105183 0
-0.0728029 0.0844484 0
-0.0806669 0.0576661 0
-0.0903383 0.024766 0
-0.101906 -0.0139999 0
-0.115237 -0.0581587 0
-0.129887 -0.107683 0
-0.144715 -0.16272 0
-0.157397 -0.222589 0
-0.164167 -0.284046 0
-0.160066 -0.33895 0
-0.140131 -0.371814 0
-0.102273 -0.358444 0
-0.0528304 -0.270276 0
-0.0133774 -0.0986213 0
-0.00115923 0.0310269 0
-0.00487614 0.0742373 0
-0.0104969 0.10161 0
-0.0165379 0.117503 0
-0.0221008 0.125966 0
-0.0267568 0.130116 0
-0.0303671 0.132098 0
-0.0329461 0.133259 0
-0.0345799 0.134353 0
-0.0353856 0.135697 0
-0.0354957 0.137276 0
-0.0350572 0.138809 0
-0.0342379 0.139793 0
-0.0332357 0.139534 0
-0.0322885 0.137205 0
-0.0316798 0.131896 0
-0.0317451 0.122713 0
-0.0328772 0.108857 0
-0.035523 0.0897141 0
-0.0401757 0.0649171 0
-0.0473517 0.0343625 0
-0.0575247 -0.00185583 0
-0.0709212 -0.0435749 0
-0.0873918 -0.0911467 0
-0.106179 -0.145641 0
-0.125335 -0.20783 0
-0.141163 -0.276207 0
-0.148046 -0.344007 0
-0.139182 -0.395555 0
-0.10927 -0.402472 0
-0.0610796 -0.323882 0
-0.0167749 -0.128774 0
-0.00151691 0.0337031 0
-0.00613094 0.0798921 0
-0.0126496 0.108095 0
-0.0190949 0.123504 0
-0.0244359 0.130868 0
-0.0282856 0.13372 0
-0.0305943 0.134414 0
-0.0314566 0.134385 0
-0.0310146 0.134419 0
-0.0294187 0.134841 0
-0.0268212 0.135644 0
-0.0233841 0.136565 0
-0.0192922 0.137126 0
-0.0147686 0.136675 0
-0.0100906 0.134438 0
-0.00559695 0.12956 0
-0.00169996 0.121218 0
0.00110313 0.108682 0
0.00223872 0.0913998 0
0.00106569 0.0690571 0
-0.00311597 0.0415802 0
-0.0110293 0.00901278 0
-0.023264 -0.0288122 0
-0.0400182 -0.0726846 0
-0.0609682 -0.124366 0
-0.0848517 -0.186066 0
-0.108603 -0.258393 0
-0.126641 -0.336901 0
-0.130827 -0.407339 0
-0.112404 -0.439022 0
-0.0689978 -0.378929 0
-0.0207403 -0.166289 0
-0.002137 0.037357 0
-0.00822741 0.0869427 0
-0.0161313 0.115467 0
-0.023169 0.129616 0
-0.0282234 0.135152 0
-0.0310556 0.136118 0
-0.0317949 0.135064 0
-0.030675 0.133478 0
-0.0279281 0.132138 0
-0.0237572 0.131355 0
-0.0183435 0.131119 0
-0.0118677 0.131178 0
-0.00453073 0.131085 0
0.00342723 0.130235 0
0.0117007 0.127927 0
0.0198916 0.123387 0
0.0275063 0.115879 0
0.0339619 0.104762 0
0.0385915 0.0895548 0
0.0406672 0.0699995 0
0.0394365 0.0460502 0
0.0341641 0.0177285 0
0.0241561 -0.0152852 0
0.00886883 -0.0541702 0
-0.0119606 -0.101101 0
-0.0379347 -0.159473 0
-0.0671817 -0.231987 0
-0.0951395 -0.31731 0
-0.113336 -0.404547 0
-0.109841 -0.463732 0
-0.0756241 -0.431843 0
-0.0251136 -0.212143 0
-0.00319503 0.042689 0
-0.011618 0.096124 0
-0.0214605 0.124032 0
-0.029136 0.135764 0
-0.0336109 0.138533 0
-0.0349889 0.136947 0
-0.0337074 0.133692 0
-0.0302095 0.130231 0
-0.0248501 0.127278 0
-0.0178963 0.125091 0
-0.0095598 0.123634 0
-3.14956e-05 0.122659 0
0.010484 0.121751 0
0.0217289 0.120366 0
0.0333651 0.117887 0
0.0449558 0.113646 0
0.0559576 0.107004 0
0.0657286 0.0974104 0
0.0735469 0.0844582 0
0.0786443 0.0679231 0
0.0802566 0.0477449 0
0.0776735 0.0238892 0
0.0702429 -0.00400712 0
0.0573613 -0.0372794 0
0.0385846 -0.0783858 0
0.013561 -0.131191 0
-0.0176825 -0.199779 0
-0.0527829 -0.28646 0
-0.0844824 -0.385501 0
-0.0988697 -0.471885 0
-0.0792071 -0.477569 0
-0.0294389 -0.266695 0
-0.00499161 0.0508756 0
-0.0169558 0.108324 0
-0.0291539 0.133872 0
-0.0370571 0.141502 0
-0.0401417 0.140354 0
-0.0391738 0.135536 0
-0.0350619 0.12971 0
-0.0285241 0.124178 0
-0.0200538 0.119501 0
-0.00997798 0.115837 0
0.00147659 0.113096 0
0.0141238 0.111021 0
0.0277618 0.109235 0
0.0421308 0.107268 0
0.0568871 0.104592 0
0.071584 0.100652 0
0.0856657 0.0949139 0
0.0984778 0.0869172 0
0.109293 0.0763174 0
0.117354 0.0629057 0
0.121926 0.046579 0
0.122347 0.0272171 0
0.11804 0.00440212 0
0.108382 -0.0231494 0
0.0926916 -0.0580483 0
0.0701694 -0.103983 0
0.039911 -0.165485 0
0.0015819 -0.247324 0
-0.0412634 -0.350092 0
-0.0753888 -0.458782 0
-0.0766155 -0.509109 0
-0.0327027 -0.328837 0
-0.00800569 0.0638729 0
-0.0249903 0.124276 0
-0.0391813 0.14431 0
-0.0457391 0.145526 0
-0.0455408 0.139217 0
-0.0404683 0.130632 0
-0.0320537 0.122087 0
-0.0213106 0.11452 0
-0.0088471 0.108226 0
0.00498611 0.103204 0
0.019977 0.0992837 0
0.0359662 0.096197 0
0.0527823 0.0936049 0
0.0701992 0.0911119 0
0.0879059 0.0882855 0
0.10549 0.0846787 0
0.122432 0.0798634 0
0.138122 0.0734656 0
0.151882 0.0651931 0
0.16301 0.0548415 0
0.170824 0.0422581 0
0.174705 0.027236 0
0.174094 0.00930079 0
0.168387 -0.0126841 0
0.156721 -0.0411562 0
0.137787 -0.0794187 0
0.109788 -0.131792 0
0.0707481 -0.203649 0
0.0203346 -0.300508 0
-0.0333107 -0.420594 0
-0.0623624 -0.517017 0
-0.0328319 -0.394371 0
-0.0127774 0.084656 0
-0.0356603 0.14336 0
-0.0488693 0.152625 0
-0.0498218 0.14472 0
-0.0423438 0.132347 0
-0.0298797 0.119966 0
-0.0145794 0.109038 0
0.00236055 0.0998861 0
0.0203279 0.0924288 0
0.039032 0.0864636 0
0.0583368 0.0817283 0
0.0781592 0.0779408 0
0.0984058 0.0747984 0
0.11893 0.0719776 0