# vtk DataFile Version 2.0
Lid-driven cavity
ASCII
DATASET STRUCTURED_POINTS
DIMENSIONS 32 32 1
ORIGIN 0.015625 0.015625 0
SPACING 0.03125 0.03125 1
POINT_DATA 1024
SCALARS pressure double 1
LOOKUP_TABLE default
33.1538
33.0058
32.7518
32.4749
32.2248
32.026
31.8903
31.8259
31.8418
31.9495
32.1618
32.491
32.9455
33.5273
34.229
35.0317
35.9034
36.8012
37.6689
38.443
39.0604
39.4677
39.6308
39.5423
39.2251
38.731
38.1329
37.5149
36.9614
36.5469
36.3259
36.3098
33.3018
33.1476
32.9366
32.7163
32.5177
32.3585
32.2491
32.198
32.2148
32.3105
32.4974
32.7869
33.1872
33.701
34.3223
35.0351
35.8111
36.6129
37.3896
38.0833
38.6367
39.0016
39.1478
39.0703
38.7923
38.3626
37.8482
37.3211
36.8518
36.4986
36.3043
36.2936
33.5651
33.3457
33.127
32.9269
32.7559
32.6199
32.5232
32.4719
32.4747
32.5429
32.6895
32.9274
33.2671
33.7142
34.2667
34.9122
35.6266
36.3752
37.1092
37.7713
38.304
38.6579
38.8016
38.7291
38.4633
38.053
37.5641
37.0673
36.6252
36.2891
36.0961
36.0756
33.8499
33.5384
33.2843
33.0794
32.9149
32.7832
32.6811
32.611
32.5803
32.6013
32.6889
32.8594
33.1276
33.5042
33.9925
34.5854
35.2633
35.9919
36.7225
37.3958
37.9498
38.3293
38.4966
38.4407
38.1818
37.7686
37.2695
36.7575
36.2973
35.9373
35.7129
35.6518
34.0704
33.6578
33.3547
33.1288
32.952
32.8044
32.6751
32.5628
32.4743
32.4231
32.4278
32.5093
32.6885
32.983
33.4029
33.9481
34.6043
35.3372
36.0983
36.8247
37.4471
37.9
38.1342
38.1281
37.894
37.4783
36.9519
36.3945
35.8779
35.4562
35.1667
35.0369
34.1456
33.6317
33.2745
33.0162
32.8104
32.6255
32.4441
32.2619
32.0858
31.9317
31.8224
31.7852
31.8485
32.0381
32.3731
32.8619
33.4981
34.2499
35.0703
35.8929
36.6393
37.2296
37.5966
37.6999
37.5366
37.1441
36.5937
35.9737
35.3701
34.8508
34.4627
34.2393
33.9956
33.3855
32.9729
32.6733
32.4224
32.1776
31.9162
31.632
31.3327
31.0374
30.7741
30.5773
30.4843
30.5313
30.7482
31.1545
31.7545
32.5255
33.4261
34.3882
35.3234
36.1335
36.726
37.0316
37.0198
36.7088
36.1634
35.4808
34.7673
34.1159
33.5947
33.2523
33.5417
32.8436
32.3761
32.0269
31.714
31.3849
31.0125
30.5892
30.1243
29.6402
29.1711
28.7594
28.4529
28.2998
28.3441
28.6192
29.1437
29.9138
30.9014
32.0409
33.2351
34.365
35.305
35.9443
36.2091
36.0812
35.6065
34.8861
34.0527
33.2378
32.5472
32.0548
32.7086
31.9331
31.4115
31.0037
30.6104
30.1701
29.6517
29.0468
28.3658
27.635
26.8945
26.1956
25.598
25.1644
24.9558
25.0242
25.4064
26.1266
27.1849
28.5253
30.0462
31.607
33.043
34.1886
34.9067
35.1197
34.8325
34.1377
33.1957
32.1922
31.2919
30.612
31.4286
30.5884
30.0132
29.5362
29.0419
28.4607
27.7574
26.9223
25.9668
24.9203
23.8285
22.7524
21.7645
20.9451
20.376
20.1329
20.2759
20.8611
21.941
23.4793
25.3781
27.4793
29.5763
31.4372
32.8401
33.6181
33.7029
33.1532
32.1493
30.9455
29.7938
28.8801
29.6464
28.7561
28.1273
27.5691
26.9514
26.1969
25.2662
24.1477
22.8523
21.4115
19.8764
18.3171
16.8207
15.4872
14.4238
13.7359
13.5161
13.8416
14.8514
16.5449
18.8398
21.5699
24.49
27.2959
29.662
31.2985
32.0207
31.8113
30.8467
29.4562
28.013
26.8096
27.325
26.4007
25.7181
25.0658
24.3013
23.3401
22.1382
20.6806
18.9766
17.058
14.9802
12.822
10.6858
8.69362
6.98195
5.69157
4.95421
4.87644
5.67518
7.43016
10.0887
13.4911
17.3656
21.339
24.9707
27.8174
29.5269
29.9455
29.1971
27.6753
25.9095
24.3515
24.4505
23.5095
22.7731
22.0143
21.0807
19.8811
18.3663
16.5166
14.3378
11.8603
9.14196
6.26968
3.36078
0.561052
-1.96089
-4.02413
-5.45153
-6.0914
-5.68447
-4.0145
-1.08832
2.96106
7.85659
13.173
18.3582
22.7947
25.9124
27.345
27.0855
25.5504
23.45
21.4657
21.035
20.0955
19.3068
18.4318
17.3109
15.847
13.9851
11.6996
8.99068
5.88548
2.44228
-1.24537
-5.04578
-8.78941
-12.2738
-15.2745
-17.563
-18.9325
-19.1141
-17.7203
-14.6895
-10.1046
-4.21785
2.52494
9.48357
15.8671
20.8491
23.7679
24.3769
23.0304
20.6176
18.1317
17.1184
16.1988
15.3618
14.3663
13.048
11.3049
9.07572
6.32772
3.05381
-0.724226
-4.94962
-9.52418
-14.3034
-19.0951
-23.6632
-27.7389
-31.0391
-33.2931
-34.2417
-33.3417
-30.4272
-25.5081
-18.7783
-10.6589
-1.83211
6.76748
14.0459
18.9728
20.9314
20.0771
17.4259
14.3644
12.766
11.8842
11.0071
9.89499
8.38171
6.36111
3.7654
0.553521
-3.29032
-7.75152
-12.7768
-18.2654
-24.0623
-29.955
-35.6763
-40.915
-45.3353
-48.605
-50.4314
-50.2411
-47.697
-42.7204
-35.415
-26.1259
-15.5101
-4.58222
5.32556
12.7716
16.6345
16.6838
13.9385
10.2347
8.06376
7.23624
6.33257
5.11931
3.43062
1.1565
-1.77783
-5.42267
-9.80376
-14.9152
-20.7089
-27.0837
-33.8764
-40.8573
-47.7319
-54.1517
-59.7333
-64.0887
-66.8636
-67.5386
-65.6095
-60.8901
-53.3707
-43.2701
-31.1412
-17.9834
-5.28865
5.09904
11.4438
12.9063
10.2971
5.89839
3.11098
2.35145
1.44087
0.156363
-1.66683
-4.14329
-7.35601
-11.3657
-16.2094
-21.8909
-28.3689
-35.5432
-43.2449
-51.2304
-59.1826
-66.7218
-73.4253
-78.8571
-82.6049
-84.2119
-83.0851
-78.9253
-71.5957
-61.1515
-47.9647
-32.904
-17.4952
-3.9086
5.45076
8.90688
6.76034
1.63618
-1.99014
-2.67237
-3.56313
-4.87181
-6.76336
-9.35985
-12.7553
-17.0229
-22.2124
-28.3385
-35.367
-43.2004
-51.6654
-60.5077
-69.3922
-77.9149
-85.6232
-92.0457
-96.7263
-99.2414
-99.0067
-95.6423
-88.8791
-78.5943
-64.9198
-48.4781
-30.6692
-13.8431
-1.04608
5.01587
3.75882
-2.08801
-7.14562
-7.74756
-8.5842
-9.85003
-11.7149
-14.315
-17.761
-22.1424
-27.5235
-33.9308
-41.3376
-49.6487
-58.6881
-68.1924
-77.8129
-87.1275
-95.663
-102.926
-108.436
-111.759
-112.403
-109.954
-104.036
-94.3542
-80.7737
-63.5775
-43.871
-23.9803
-7.46917
1.80963
1.97489
-4.53904
-12.2818
-12.8092
-13.5488
-14.6811
-16.3913
-18.8424
-22.1714
-26.4904
-31.8808
-38.3812
-45.9713
-54.5575
-63.9606
-73.9102
-84.0466
-93.9348
-103.088
-111
-117.182
-121.189
-122.606
-121.051
-116.107
-107.322
-94.3061
-76.9509
-55.9194
-33.2813
-12.9032
0.203882
2.45505
-4.57733
-17.3585
-17.828
-18.4162
-19.2949
-20.6843
-22.7956
-25.8081
-29.8645
-35.0665
-41.4637
-49.0397
-57.6989
-67.2587
-77.4416
-87.8797
-98.129
-107.694
-116.063
-122.743
-127.291
-129.328
-128.533
-124.511
-116.705
-104.504
-87.4028
-65.522
-40.4464
-16.0661
1.55384
6.76207
-0.464546
-22.3839
-22.8256
-23.1896
-23.6544
-24.5109
-26.0524
-28.522
-32.1027
-36.9194
-43.0283
-50.4144
-58.9789
-68.529
-78.7767
-89.344
-99.7784
-109.579
-118.232
-125.246
-130.185
-132.674
-132.431
-129.112
-122.135
-110.706
-93.9606
-71.4289
-44.0164
-15.3213
7.74508
17.1631
10.4015
-27.4376
-27.8946
-27.9265
-27.7579
-27.8116
-28.5134
-30.1965
-33.0992
-37.3642
-43.0492
-50.1289
-58.4896
-67.923
-78.1264
-88.7092
-99.2098
-109.122
-117.931
-125.147
-130.336
-133.13
-133.211
-130.219
-123.657
-112.652
-95.9684
-72.5596
-42.4905
-8.73588
21.2505
36.8341
31.8214
-32.7136
-33.2337
-32.7543
-31.6383
-30.5436
-30.0976
-30.7526
-32.7932
-36.3739
-41.5405
-48.2451
-56.3478
-65.6165
-75.7279
-86.276
-96.789
-106.755
-115.655
-122.997
-128.342
-131.313
-131.564
-128.622
-121.888
-110.45
-93.0652
-68.0479
-34.4147
5.8312
45.1249
70.0422
69.1831
-38.6128
-39.2144
-37.8948
-35.361
-32.6693
-30.7252
-30.1174
-31.1509
-33.9697
-38.5854
-44.9086
-52.7605
-61.8757
-71.9053
-82.4252
-92.9515
-102.965
-111.94
-119.375
-124.812
-127.847
-128.105
-124.98
-117.66
-105.033
-85.5005
-57.1949
-18.3926
30.643
82.9068
122.244
129.887
-45.9633
-46.5191
-43.7081
-39.019
-34.1445
-30.3222
-28.2491
-28.1957
-30.2482
-34.3505
-40.3496
-48.0137
-57.0362
-67.0384
-77.5759
-88.1522
-98.239
-107.3
-114.816
-120.3
-123.295
-123.357
-119.825
-111.497
-96.9189
-74.0127
-40.1932
6.96981
68.0301
138.392
200.008
223.802
-56.5527
-56.4133
-50.745
-42.7004
-34.8822
-28.8027
-25.1321
-24.0024
-25.3692
-29.066
-34.8532
-42.4341
-51.4558
-61.5078
-72.1254
-82.7993
-92.9912
-102.152
-109.739
-115.22
-118.07
-117.729
-113.512
-103.718
-86.3856
-58.7975
-17.4204
41.478
120.122
215.195
310.56
363.75
-74.4638
-71.1817
-59.6676
-46.2931
-34.5941
-25.958
-20.6905
-18.6186
-19.4776
-22.9452
-28.6769
-36.3052
-45.4306
-55.6125
-66.3681
-77.1767
-87.491
-96.748
-104.377
-109.797
-112.394
-111.471
-106.163
-94.438
-73.5538
-40.014
10.8784
84.6096
186.127
316.081
460.452
565.988
-109.414
-94.1276
-70.2742
-48.6234
-32.2265
-21.0355
-14.4333
-11.7736
-12.462
-15.9848
-21.8857
-29.7317
-39.0845
-49.4815
-60.4283
-71.3986
-81.8389
-91.1747
-98.8079
-104.103
-106.347
-104.678
-97.9648
-83.8277
-58.7827
-18.4874
43.0536
133.565
262.215
437.672
656.459
849.868
-183.785
-124.638
-76.9045
-44.537
-23.8482
-11.3167
-4.6371
-2.387
-3.64492
-7.75873
-14.2127
-22.5489
-32.3204
-43.065
-54.2929
-65.4835
-76.0866
-85.5216
-93.1688
-98.3421
-100.233
-97.8083
-89.6402
-72.9468
-43.9021
2.56374
73.6136
179.382
334.855
564.124
902.608
1310.23
-367.89
-134.064
-51.8395
-17.7028
-0.963835
7.56806
11.0736
10.9096
7.81
2.27183
-5.29896
-14.5207
-25.0012
-36.3189
-48.0155
-59.5945
-70.5219
-80.2239
-88.0739
-93.3594
-95.2137
-92.4881
-83.5003
-65.4371
-34.4182
14.9371
90.3382
203.393
373.873
643.791
1126.55
2118.56
VECTORS velocity double
8.31115e-05 -8.31115e-05 0
0.000169518 -3.29506e-06 0
3.52608e-05 0.000137552 0
-0.000368838 0.000266546 0
-0.00100115 0.000365762 0
-0.00180523 0.000438319 0
-0.0027353 0.000491757 0
-0.00375838 0.000531322 0
-0.00484802 0.00055832 0
-0.00597704 0.000570695 0
-0.00711206 0.000564323 0
-0.00821071 0.000534331 0
-0.00922126 0.000476221 0
-0.0100843 0.000386821 0
-0.0107362 0.000265116 0
-0.0111143 0.000112975 0
-0.0111629 -6.43794e-05 0
-0.0108402 -0.00025837 0
-0.0101269 -0.000454925 0
-0.00903575 -0.000636212 0
-0.00761704 -0.000782493 0
-0.0059598 -0.000874751 0
-0.00418711 -0.000897942 0
-0.00244479 -0.000844378 0
-0.000883966 -0.000716443 0
0.000360256 -0.000527779 0
0.0011906 -0.00030256 0
0.00156446 -7.13025e-05 0
0.00150492 0.000130841 0
0.00110911 0.000264965 0
0.000560102 0.000284046 0
0.000138028 0.000138028 0
-2.43936e-07 -0.000165979 0
-0.000249107 0.000242029 0
-0.00105668 0.00083406 0
-0.00245888 0.00137633 0
-0.00437462 0.00180403 0
-0.00669369 0.0021232 0
-0.00931384 0.0023571 0
-0.0121469 0.00252212 0
-0.0151108 0.00262105 0
-0.0181187 0.00264485 0
-0.0210709 0.00257746 0
-0.023852 0.00240089 0
-0.0263315 0.00209978 0
-0.0283703 0.00166507 0
-0.0298285 0.00109704 0
-0.0305772 0.000407804 0
-0.0305106 -0.000377209 0
-0.0295607 -0.00121815 0
-0.0277117 -0.00205748 0
-0.0250117 -0.00282475 0
-0.0215812 -0.00344325 0
-0.017613 -0.00383937 0
-0.0133649 -0.00395414 0
-0.00913983 -0.00375559 0
-0.00525643 -0.00324946 0
-0.00201004 -0.00248538 0
0.000370632 -0.00155597 0
0.00176619 -0.000587317 0
0.00219792 0.000274665 0
0.00184374 0.000871125 0
0.00104179 0.00102885 0
0.00029052 0.000566575 0
-0.000181304 1.55686e-05 0
-0.00100611 0.00113415 0
-0.00274494 0.00248835 0
-0.00532295 0.00370225 0
-0.00859619 0.00466708 0
-0.0124098 0.00539281 0
-0.0166208 0.00591866 0
-0.0210977 0.00627058 0
-0.0257104 0.00644911 0
-0.0303189 0.00643317 0
-0.0347674 0.0061899 0
-0.0388832 0.00568526 0
-0.0424813 0.00489314 0
-0.0453735 0.00380269 0
-0.0473798 0.00242391 0
-0.0483419 0.000791745 0
-0.0481383 -0.00103137 0
-0.0466987 -0.00295342 0
-0.0440177 -0.00485228 0
-0.0401658 -0.00658186 0
-0.0352981 -0.00798437 0
-0.029657 -0.00890747 0
-0.0235652 -0.00922596 0
-0.0174081 -0.00886592 0
-0.0116028 -0.00782787 0
-0.00655288 -0.00620329 0
-0.00259321 -0.00417839 0
6.81111e-05 -0.00202178 0
0.00140168 -5.61668e-05 0
0.00158866 0.00136915 0
0.0010226 0.00189883 0
0.000306684 0.00116378 0
-0.000400461 0.000597333 0
-0.00191349 0.00289022 0
-0.0047281 0.00528572 0
-0.00859636 0.00735115 0
-0.0132819 0.00897692 0
-0.0185789 0.0101936 0
-0.0243091 0.011059 0
-0.030307 0.011605 0
-0.0364048 0.0118251 0
-0.0424221 0.0116829 0
-0.0481614 0.011128 0
-0.0534114 0.0101129 0
-0.0579537 0.00860591 0
-0.0615735 0.00660195 0
-0.0640724 0.00412977 0
-0.0652812 0.00125686 0
-0.0650736 -0.00190776 0
-0.0633769 -0.00521328 0
-0.0601827 -0.00846768 0
-0.0555587 -0.0114424 0
-0.0496613 -0.0138889 0
-0.042742 -0.0155633 0
-0.0351473 -0.0162567 0
-0.0273064 -0.0158331 0
-0.0197049 -0.0142675 0
-0.012839 -0.0116795 0
-0.00715219 -0.00834871 0
-0.00296094 -0.00470403 0
-0.000384831 -0.0012836 0
0.000703535 0.00132124 0
0.000697588 0.00251875 0
0.000243446 0.00171391 0
-0.000634344 0.00163214 0
-0.00288209 0.00561619 0
-0.0068342 0.00932647 0
-0.0120381 0.0123825 0
-0.0181465 0.0147395 0
-0.0248973 0.0164789 0
-0.0320795 0.0176861 0
-0.0395019 0.0183981 0
-0.0469706 0.0185986 0
-0.0542784 0.0182345 0
-0.0612025 0.01724 0
-0.0675094 0.0155579 0
-0.0729634 0.0131571 0
-0.0773371 0.0100443 0
-0.080423 0.00627226 0
-0.0820445 0.0019447 0
-0.082066 -0.0027818 0
-0.0803995 -0.00770238 0
-0.0770127 -0.0125596 0
-0.0719443 -0.0170428 0
-0.0653223 -0.0208079 0
-0.0573782 -0.0235077 0
-0.0484547 -0.0248305 0
-0.0390036 -0.0245512 0
-0.0295665 -0.022588 0
-0.0207331 -0.0190583 0
-0.013073 -0.0143169 0
-0.00704429 -0.0089558 0
-0.00289748 -0.00375476 0
-0.000600525 0.00040708 0
0.000195747 0.00264258 0
0.000141305 0.00209866 0
-0.000870975 0.00313746 0
-0.00385897 0.00934661 0
-0.00894819 0.0146374 0
-0.0154716 0.0187989 0
-0.0229663 0.0219263 0
-0.0311136 0.0241902 0
-0.0396743 0.0257177 0
-0.0484394 0.026554 0
-0.0572004 0.0266725 0
-0.0657367 0.0260046 0
-0.073814 0.0244712 0
-0.0811894 0.0220091 0
-0.0876201 0.0185906 0
-0.0928718 0.0142362 0
-0.0967282 0.00902266 0
-0.0989991 0.00308671 0
-0.099528 -0.0033734 0
-0.0981961 -0.0101092 0
-0.0949279 -0.0168079 0
-0.089711 -0.0230798 0
-0.0826219 -0.0284819 0
-0.0738486 -0.0325512 0
-0.0637077 -0.0348513 0
-0.0526547 -0.0350346 0
-0.0412768 -0.0329198 0
-0.0302601 -0.0285766 0
-0.0203214 -0.0223974 0
-0.0121009 -0.0151244 0
-0.00603266 -0.00780112 0
-0.00222943 -0.00164673 0
-0.000423227 0.00209392 0
1.92855e-05 0.00225925 0
-0.0011006 0.00510904 0
-0.00480154 0.014064 0
-0.0109769 0.0211846 0
-0.0187513 0.0265495 0
-0.027552 0.030471 0
-0.0370089 0.0332497 0
-0.0468612 0.0350712 0
-0.0568903 0.0359947 0
-0.0668832 0.0359858 0
-0.0766171 0.0349615 0
-0.0858566 0.0328311 0
-0.0943582 0.0295263 0
-0.101876 0.0250223 0
-0.10817 0.0193502 0
-0.11301 0.0126048 0
-0.116182 0.00494788 0
-0.117498 -0.0033905 0
-0.116794 -0.0121279 0
-0.11394 -0.0209107 0
-0.108859 -0.0292751 0
-0.101558 -0.0366771 0
-0.0921596 -0.0425275 0
-0.0809327 -0.0462427 0
-0.0683127 -0.0473162 0
-0.054913 -0.0454158 0
-0.0415091 -0.0405011 0
-0.0289787 -0.032942 0
-0.018185 -0.0235941 0
-0.00980944 -0.0137752 0
-0.00417735 -0.00510793 0
-0.00114895 0.000720517 0
-0.000118672 0.00215986 0
-0.00131305 0.00752269 0
-0.00566859 0.0197068 0
-0.0128345 0.0288831 0
-0.0217454 0.0355364 0
-0.0317315 0.0402708 0
-0.0423804 0.0435558 0
-0.0534165 0.0456535 0
-0.0646194 0.0466445 0
-0.0757801 0.0464896 0
-0.0866817 0.0450931 0
-0.0970952 0.0423524 0
-0.106781 0.0381922 0
-0.115492 0.0325857 0
-0.122979 0.0255673 0
-0.128992 0.0172404 0
-0.133288 0.00778092 0
-0.135636 -0.00256052 0
-0.135825 -0.0134724 0
-0.133667 -0.0245776 0
-0.12901 -0.0353469 0
-0.121779 -0.0451372 0
-0.112017 -0.0532278 0
-0.0999165 -0.05887 0
-0.0858616 -0.0613639 0
-0.0704596 -0.0601698 0
-0.0545503 -0.0550603 0
-0.0391684 -0.0462951 0
-0.0254305 -0.0347726 0
-0.0143342 -0.0220687 0
-0.00650642 -0.0102744 0
-0.00200492 -0.00164295 0
-0.000276526 0.00176467 0
-0.00149738 0.0103331 0
-0.0064185 0.026173 0
-0.014438 0.0376022 0
-0.0243291 0.0456193 0
-0.035342 0.0511867 0
-0.0470315 0.0549782 0
-0.059114 0.0573496 0
-0.0713735 0.0584108 0
-0.0836107 0.0581212 0
-0.0956205 0.056373 0
-0.107184 0.05305 0
-0.118069 0.0480651 0
-0.128027 0.0413821 0
-0.136799 0.0330288 0
-0.144113 0.023106 0
-0.149693 0.0117924 0
-0.153267 -0.00065076 0
-0.154574 -0.0138852 0
-0.153371 -0.0275262 0
-0.149434 -0.0409929 0
-0.142603 -0.0535532 0
-0.132819 -0.0643579 0
-0.120174 -0.0724855 0
-0.104962 -0.077015 0
-0.0877372 -0.0771453 0
-0.0693567 -0.0723745 0
-0.0509818 -0.0627376 0
-0.0339904 -0.0490594 0
-0.019758 -0.0331105 0
-0.00932028 -0.017498 0
-0.00303916 -0.00520196 0
-0.000466009 0.00102213 0
-0.00164256 0.0134731 0
-0.00701051 0.0333222 0
-0.0157082 0.0471703 0
-0.0263848 0.056619 0
-0.0382286 0.0630437 0
-0.0507704 0.0673526 0
-0.0637236 0.070011 0
-0.0768802 0.0711656 0
-0.0900545 0.0707779 0
-0.103057 0.0687281 0
-0.115681 0.0648834 0
-0.127704 0.0591388 0
-0.138877 0.0514401 0
-0.148934 0.0417985 0
-0.157584 0.030301 0
-0.164525 0.0171191 0
-0.169445 0.00251618 0
-0.172042 -0.0131479 0
-0.172023 -0.0294853 0
-0.169106 -0.045888 0
-0.163042 -0.0615537 0
-0.153663 -0.0755201 0
-0.140932 -0.0866988 0
-0.125011 -0.0939348 0
-0.106341 -0.0961206 0
-0.0857293 -0.0923916 0
-0.0644031 -0.0824217 0
-0.0439738 -0.0667961 0
-0.0262338 -0.0473462 0
-0.0127427 -0.0271912 0
-0.00431383 -0.0102188 0
-0.000702056 -0.000145934 0
-0.00173835 0.016854 0
-0.00740751 0.0409783 0
-0.0165741 0.0573784 0
-0.0278061 0.0683196 0
-0.0402489 0.0756297 0
-0.0534159 0.0804754 0
-0.0670195 0.083445 0
-0.0808613 0.08473 0
-0.0947706 0.0842972 0
-0.108574 0.0820146 0
-0.122083 0.0777298 0
-0.135082 0.0713141 0
-0.147332 0.0626881 0
-0.158562 0.0518373 0
-0.168475 0.0388261 0
-0.17675 0.0238097 0
-0.18305 0.0070459 0
-0.187036 -0.0110952 0
-0.188384 -0.0302084 0
-0.18677 -0.0496962 0
-0.181865 -0.0687148 0
-0.173385 -0.0862177 0
-0.161144 -0.100973 0
-0.145129 -0.111598 0
-0.125604 -0.116653 0
-0.103242 -0.114833 0
-0.0792436 -0.105304 0
-0.055385 -0.0882013 0
-0.033872 -0.0651939 0
-0.0168921 -0.0398145 0
-0.00589538 -0.0170212 0
-0.00100136 -0.00184935 0
-0.00177644 0.0203688 0
-0.0075794 0.0489356 0
-0.0169774 0.0679857 0
-0.0285054 0.0804724 0
-0.041283 0.0886972 0
-0.0548102 0.094102 0
-0.0687984 0.0974102 0
-0.0830574 0.0988657 0
-0.0974312 0.0984446 0
-0.111764 0.0960036 0
-0.125884 0.0913687 0
-0.139593 0.0843837 0
-0.152663 0.0749386 0
-0.164833 0.0629879 0
-0.175812 0.048567 0
-0.185276 0.0318079 0
-0.192883 0.0129542 0
-0.198274 -0.00762681 0
-0.20111 -0.0294922 0
-0.201041 -0.0520951 0
-0.197676 -0.0745869 0
-0.190621 -0.0958797 0
-0.179531 -0.114641 0
-0.164181 -0.129295 0
-0.144595 -0.138068 0
-0.121215 -0.13916 0
-0.0950993 -0.13109 0
-0.0680737 -0.1133 0
-0.0426995 -0.0869828 0
-0.0218588 -0.0558462 0
-0.00784646 -0.0259985 0
-0.00138088 -0.00423159 0
-0.00175155 0.0238968 0
-0.00750676 0.0569658 0
-0.0168798 0.0787265 0
-0.0284224 0.092802 0
-0.0412449 0.101968 0
-0.0548357 0.10795 0
-0.068902 0.111617 0
-0.0832589 0.113275 0
-0.097763 0.112913 0
-0.112276 0.110381 0
-0.126646 0.105481 0
-0.140696 0.0980304 0
-0.15422 0.0878864 0
-0.16698 0.0749707 0
-0.178705 0.059287 0
-0.189092 0.0409397 0
-0.197814 0.0201515 0
-0.204525 -0.00272262 0
-0.208882 -0.0272029 0
-0.210526 -0.0528093 0
-0.209031 -0.0787331 0
-0.203916 -0.103903 0
-0.194675 -0.12695 0
-0.180848 -0.146163 0
-0.162161 -0.159473 0
-0.138731 -0.164564 0
-0.11134 -0.159193 0
-0.0817078 -0.141855 0
-0.0526295 -0.11288 0
-0.0276855 -0.075734 0
-0.0102198 -0.0375887 0
-0.0018572 -0.00746966 0
-0.00166245 0.0273107 0
-0.00718416 0.0648288 0
-0.0162684 0.0893209 0
-0.0275334 0.105015 0
-0.0400959 0.115139 0
-0.0534321 0.121705 0
-0.0672406 0.125736 0
-0.0813373 0.127609 0
-0.0955888 0.127335 0
-0.109874 0.124757 0
-0.124063 0.119663 0
-0.138006 0.111842 0
-0.151528 0.101122 0
-0.164428 0.0873947 0
-0.176474 0.0706333 0
-0.187407 0.0509142 0
-0.196943 0.0284349 0
-0.204769 0.00353125 0
-0.210561 -0.0233083 0
-0.213972 -0.0516491 0
-0.214584 -0.080776 0
-0.211855 -0.109703 0
-0.205136 -0.13711 0
-0.193726 -0.16124 0
-0.177009 -0.1798 0
-0.154691 -0.189986 0
-0.127134 -0.18872 0
-0.0957706 -0.173324 0
-0.0634447 -0.142815 0
-0.0343536 -0.0998335 0
-0.0130529 -0.0522557 0
-0.00244566 -0.0117725 0
-0.00151264 0.0304858 0
-0.0066227 0.0722854 0
-0.0151607 0.0994865 0
-0.0258588 0.116813 0
-0.0378541 0.127899 0
-0.0506104 0.135037 0
-0.0638121 0.139414 0
-0.077271 0.141487 0
-0.0908603 0.141298 0
-0.104475 0.138694 0
-0.118011 0.13345 0
-0.131349 0.125336 0
-0.144357 0.114157 0
-0.156879 0.0997809 0
-0.168741 0.0821558 0
-0.17975 0.0613341 0
-0.189687 0.0374873 0
-0.198303 0.0109225 0
-0.205312 -0.0179001 0
-0.210414 -0.0485435 0
-0.213239 -0.0804454 0
-0.213222 -0.112779 0
-0.209605 -0.144371 0
-0.201461 -0.173533 0
-0.187816 -0.197868 0
-0.16789 -0.214161 0
-0.141499 -0.218493 0
-0.109584 -0.206829 0
-0.0747967 -0.176423 0
-0.0417738 -0.128339 0
-0.0163638 -0.0704606 0
-0.00316019 -0.0173784 0
-0.00131068 0.0333092 0
-0.00585136 0.0791128 0
-0.013608 0.108954 0
-0.0234677 0.127903 0
-0.0346019 0.139938 0
-0.0464621 0.147615 0
-0.0587136 0.15229 0
-0.0711589 0.154515 0
-0.0836755 0.154375 0
-0.0961748 0.151731 0
-0.108578 0.146352 0
-0.120805 0.137999 0
-0.132767 0.126463 0
-0.144367 0.111596 0
-0.155498 0.0933339 0
-0.166045 0.071712 0
-0.175879 0.0468802 0
-0.184844 0.0191112 0
-0.192735 -0.0111898 0
-0.199325 -0.0435604 0
-0.204309 -0.0776209 0
-0.207157 -0.112772 0
-0.207056 -0.148095 0
-0.202897 -0.182112 0
-0.193357 -0.212475 0
-0.177136 -0.235701 0
-0.153384 -0.247097 0
-0.122353 -0.24117 0
-0.0862211 -0.213001 0
-0.0497861 -0.16122 0
-0.0201503 -0.0926263 0
-0.00401397 -0.0245525 0
-0.00106998 0.0356898 0
-0.00491704 0.0851199 0
-0.0116957 0.117482 0
-0.0204796 0.138019 0
-0.0304881 0.150966 0
-0.0411613 0.159121 0
-0.0521426 0.164017 0
-0.0632222 0.166313 0
-0.07428 0.166152 0
-0.0852444 0.163418 0
-0.0960659 0.15789 0
-0.106703 0.149326 0
-0.117119 0.137514 0
-0.127275 0.122302 0
-0.13714 0.103624 0
-0.146683 0.0815127 0
-0.155877 0.0561071 0
-0.16468 0.0276518 0
-0.173014 -0.00350559 0
-0.180746 -0.0369214 0
-0.187656 -0.0723675 0
-0.193306 -0.109527 0
-0.196904 -0.147843 0
-0.197224 -0.186202 0
-0.192648 -0.222501 0
-0.181354 -0.25319 0
-0.161755 -0.272959 0
-0.133227 -0.274866 0
-0.0971674 -0.251496 0
-0.0581677 -0.198159 0
-0.0243925 -0.119098 0
-0.00502168 -0.0335882 0
-0.000808313 0.0375681 0
-0.00388344 0.0901638 0
-0.00954266 0.124876 0
-0.017064 0.14693 0
-0.0257256 0.160725 0
-0.0349606 0.16927 0
-0.0443904 0.174279 0
-0.0537923 0.176533 0
-0.0630498 0.176248 0
-0.0721103 0.173347 0
-0.0809568 0.167629 0
-0.0895915 0.15886 0
-0.098029 0.146833 0
-0.106295 0.131405 0
-0.11443 0.11252 0
-0.122488 0.0902193 0
-0.130544 0.0646498 0
-0.138677 0.0360447 0
-0.146947 0.00470601 0
-0.155344 -0.0290035 0
-0.163768 -0.0649528 0
-0.171924 -0.103135 0
-0.179115 -0.143446 0
-0.184104 -0.185291 0
-0.185062 -0.22703 0
-0.179707 -0.26531 0
-0.165689 -0.294458 0
-0.141362 -0.306223 0
-0.107036 -0.290524 0
-0.0666476 -0.238519 0
-0.0290608 -0.1501 0
-0.00620401 -0.0448138 0
-0.000547066 0.0389235 0
-0.00282933 0.0941658 0
-0.0072992 0.131003 0
-0.0134367 0.154462 0
-0.0205866 0.169005 0
-0.0281818 0.17782 0
-0.0358267 0.182803 0
-0.0432897 0.184873 0
-0.0504617 0.184337 0
-0.0573143 0.181171 0
-0.0638674 0.175205 0
-0.0701711 0.166222 0
-0.0762958 0.154033 0
-0.08233 0.138506 0
-0.0883822 0.119605 0
-0.0945857 0.0973956 0
-0.101102 0.0720455 0
-0.108119 0.0437989 0
-0.115827 0.0129303 0
-0.124356 -0.0203016 0
-0.133756 -0.0558317 0
-0.143904 -0.0939515 0
-0.154282 -0.13506 0
-0.163755 -0.179216 0
-0.170431 -0.225469 0
-0.171683 -0.270974 0
-0.16445 -0.310046 0
-0.14598 -0.333431 0
-0.115213 -0.328409 0
-0.074924 -0.281312 0
-0.0341268 -0.185691 0
-0.0075943 -0.0586122 0
-0.000310669 0.0397812 0
-0.00184725 0.0971269 0
-0.00514507 0.13581 0
-0.00985738 0.160505 0
-0.0153961 0.17565 0
-0.0212046 0.184579 0
-0.0268815 0.189367 0
-0.0321963 0.191087 0
-0.0370562 0.190154 0
-0.0414644 0.186614 0
-0.0454848 0.180335 0
-0.04922 0.171131 0
-0.0527998 0.158829 0
-0.056376 0.143321 0
-0.0601223 0.12459 0
-0.0642384 0.102731 0
-0.0689547 0.0779432 0
-0.0745366 0.0505 0
-0.0812757 0.0206763 0
-0.0894467 -0.0113472 0
-0.0992454 -0.0455879 0
-0.110722 -0.0825696 0
-0.123599 -0.123187 0
-0.136978 -0.168238 0
-0.149088 -0.217662 0
-0.157152 -0.269464 0
-0.157542 -0.318399 0
-0.146409 -0.354681 0
-0.121094 -0.363242 0
-0.0826733 -0.325188 0
-0.039573 -0.225711 0
-0.00924535 -0.0754518 0
-0.000126791 0.0402187 0
-0.00104431 0.0991436 0
-0.00329058 0.139337 0
-0.00662834 0.165028 0
-0.0105267 0.180564 0
-0.0144543 0.1894 0
-0.0180247 0.193793 0
-0.0210265 0.194978 0
-0.0233981 0.193495 0
-0.0251855 0.189469 0
-0.0265047 0.18282 0
-0.0275163 0.173393 0
-0.0284124 0.161042 0
-0.0294095 0.14568 0
-0.0307452 0.127312 0
-0.0326784 0.106057 0
-0.0354924 0.0821466 0
-0.0394997 0.0558858 0
-0.0450459 0.0275757 0
-0.052497 -0.00262462 0
-0.0621643 -0.0348445 0
-0.0742523 -0.0697481 0
-0.0887429 -0.108641 0
-0.10509 -0.153058 0
-0.12185 -0.203973 0
-0.136372 -0.260568 0
-0.14472 -0.318558 0
-0.142082 -0.368292 0
-0.124073 -0.392956 0
-0.0895386 -0.36843 0
-0.0453901 -0.269719 0
-0.0112325 -0.0959296 0
-2.82874e-05 0.0403738 0
-0.000547835 0.100426 0
-0.00198328 0.141737 0
-0.00409794 0.16808 0
-0.00639504 0.183707 0
-0.00839045 0.192181 0
-0.00974548 0.195938 0
-0.0102972 0.196387 0
-0.0100374 0.194198 0
-0.0090709 0.189587 0
-0.00757517 0.182526 0
-0.00577358 0.172897 0
-0.00392311 0.160584 0
-0.00230591 0.145519 0
-0.00122249 0.127726 0
-0.000988103 0.107343 0
-0.00192978 0.0846172 0
-0.00438523 0.059878 0
-0.00870572 0.0334503 0
-0.0152621 0.00550831 0
-0.0244145 -0.0241577 0
-0.0364673 -0.0562942 0
-0.0516224 -0.0924488 0
-0.0697435 -0.134782 0
-0.0899162 -0.185315 0
-0.10994 -0.244679 0
-0.125955 -0.310085 0
-0.132501 -0.372857 0
-0.123497 -0.415404 0
-0.0950807 -0.408931 0
-0.0515483 -0.316898 0
-0.0136469 -0.120809 0
-5.86859e-05 0.0404607 0
-0.000520168 0.10132 0
-0.00152513 0.143283 0
-0.00267106 0.169795 0
-0.00346122 0.18508 0
-0.00349347 0.192835 0
-0.00252775 0.195672 0
-0.000492569 0.195169 0
0.00253551 0.192129 0
0.0063725 0.186853 0
0.0107663 0.17937 0
0.0154208 0.169597 0
0.0200109 0.157443 0
0.0241917 0.142861 0
0.0276055 0.125887 0
0.0298895 0.106664 0
0.0306857 0.0854415 0
0.0296515 0.0625432 0
0.0264673 0.0382898 0
0.020833 0.0128595 0
0.0124331 -0.0139566 0
0.000934318 -0.0429437 0
-0.0140134 -0.0756963 0
-0.032635 -0.114792 0
-0.0546567 -0.163111 0
-0.0786582 -0.222858 0
-0.101351 -0.293198 0
-0.117152 -0.367397 0
-0.11856 -0.42846 0
-0.0986743 -0.444177 0
-0.0579262 -0.365933 0
-0.016573 -0.151029 0
-0.000284336 0.0408038 0
-0.00118942 0.102343 0
-0.00230477 0.14438 0
-0.0028264 0.170365 0
-0.00222514 0.184698 0
-0.000241066 0.191265 0
0.00319472 0.192841 0
0.00799396 0.191166 0
0.0139435 0.187154 0
0.0207587 0.181176 0
0.0281064 0.173306 0
0.0356213 0.163492 0
0.0429177 0.151662 0
0.0495974 0.137782 0
0.0552577 0.121892 0
0.0595025 0.10413 0
0.061956 0.0847256 0
0.0622797 0.0639696 0
0.0601844 0.0421429 0
0.0554308 0.0193943 0
0.0477979 -0.00445854 0
0.0370477 -0.0301928 0
0.022896 -0.0593478 0
0.00492339 -0.0945459 0
-0.0172847 -0.139127 0
-0.0433253 -0.1968 0
-0.0710055 -0.268882 0
-0.0953738 -0.351544 0
-0.108144 -0.430136 0
-0.0993288 -0.471203 0
-0.0641751 -0.41481 0
-0.0200394 -0.187641 0
-0.000818532 0.0419066 0
-0.00290452 0.104231 0
-0.00484566 0.145548 0
-0.00513219 0.170005 0
-0.00320898 0.182534 0
0.000929344 0.187307 0
0.00705707 0.187235 0
0.0148438 0.184185 0
0.0239018 0.179127 0
0.0338247 0.172465 0
0.0441956 0.164298 0
0.054589 0.154591 0
0.0645734 0.143282 0
0.0737159 0.13034 0
0.0815898 0.1158 0
0.0877867 0.0997803 0
0.0919329 0.0824753 0
0.0937073 0.0641219 0
0.0928557 0.0449375 0
0.0891927 0.0250163 0
0.0825755 0.0041695 0
0.0728309 -0.018326 0
0.0597018 -0.0439339 0
0.0428015 -0.0750869 0
0.0216203 -0.115197 0
-0.00440595 -0.168663 0
-0.0348158 -0.238929 0
-0.0662055 -0.325739 0
-0.0906022 -0.418774 0
-0.0954184 -0.486563 0
-0.0694905 -0.46053 0
-0.0239329 -0.231614 0
-0.00186475 0.0445899 0
-0.00621761 0.107987 0
-0.00984861 0.147365 0
-0.0102183 0.168845 0
-0.00687699 0.17843 0
-0.000277304 0.180673 0
0.00890351 0.178561 0
0.0200042 0.173972 0
0.0324276 0.167858 0
0.045638 0.1606 0
0.0591441 0.152286 0
0.0724784 0.142876 0
0.0851872 0.132304 0
0.0968286 0.120533 0
0.106978 0.107582 0
0.115241 0.0935383 0
0.121265 0.0785468 0
0.124761 0.0627795 0
0.125514 0.046379 0
0.123379 0.0293727 0
0.118262 0.0115473 0
0.110048 -0.00774489 0
0.0984943 -0.0298326 0
0.0831905 -0.056984 0
0.0635243 -0.0924521 0
0.0386491 -0.140506 0
0.00780009 -0.205827 0
-0.0282104 -0.29144 0
-0.0635246 -0.393361 0
-0.0843056 -0.486379 0
-0.0722457 -0.498703 0
-0.027849 -0.283396 0
-0.00378189 0.0502365 0
-0.0119614 0.114873 0
-0.0181248 0.150273 0
-0.0185462 0.166727 0
-0.0132868 0.171947 0
-0.00358697 0.170857 0
0.00925219 0.166357 0
0.0241669 0.160161 0
0.040336 0.153078 0
0.0571131 0.145393 0
0.0739601 0.137139 0
0.0903985 0.128249 0
0.105984 0.118637 0
0.120296 0.108247 0
0.13294 0.0970737 0
0.14356 0.0851644 0
0.151847 0.0726102 0
0.157552 0.0595146 0
0.160497 0.0459463 0
0.160568 0.0318689 0
0.157693 0.0170437 0
0.151779 0.000887342 0
0.142586 -0.0177191 0
0.129656 -0.0408637 0
0.112239 -0.0714896 0
0.0891802 -0.113534 0
0.0590183 -0.171788 0
0.0207502 -0.251201 0
-0.023517 -0.354019 0
-0.0618602 -0.466596 0
-0.0694043 -0.523001 0
-0.030827 -0.342072 0
-0.00713874 0.0611572 0
-0.0211423 0.126135 0
-0.0300543 0.154086 0
-0.0295049 0.162786 0
-0.0209569 0.16208 0
-0.00688705 0.156954 0
0.0106466 0.149888 0
0.0301756 0.142186 0
0.0506986 0.13436 0
0.0715175 0.126515 0
0.0920998 0.118588 0
0.112 0.110462 0
0.130819 0.10202 0
0.148192 0.0931806 0
0.16378 0.0839069 0
0.177286 0.0742056 0
0.188455 0.0641142 0
0.197085 0.0536752 0
0.203029 0.0428958 0
0.206185 0.0316925 0
0.206465 0.0198153 0
0.203751 0.00674439 0
0.197817 -0.00845057 0
0.188154 -0.0275385 0
0.173804 -0.0530484 0
0.153269 -0.0883813 0
0.124444 -0.137954 0
0.0849795 -0.207303 0
0.0339451 -0.302616 0
-0.0219159 -0.423796 0
-0.0555597 -0.524613 0
-0.0308487 -0.403747 0
-0.0125455 0.0808414 0
-0.0338984 0.141807 0
-0.0433275 0.156755 0
-0.0383587 0.154599 0
-0.0233811 0.146741 0
-0.00249813 0.13734 0
0.0215244 0.127946 0
0.0469783 0.119145 0
0.0728524 0.111004 0
0.0985114 0.103393 0
0.123507 0.0961319 0
0.147484 0.0890419 0
0.17013 0.0819743 0
0.191163 0.0748205 0
0.210327 0.0675145 0
0.227392 0.0600269 0
0.242165 0.0523518 0
0.254487 0.0444857 0
0.264232 0.0363955 0
0.271293 0.0279762 0
0.275552 0.0189922 0
0.276837 0.00899758 0
0.27485 -0.00278405 0
0.269001 -0.0176924 0
0.258161 -0.037705 0
0.240475 -0.0655029 0
0.213233 -0.104765 0
0.17297 -0.160764 0
0.116355 -0.241505 0
0.0442988 -0.356989 0
-0.0213119 -0.492166 0
-0.0238109 -0.458407 0
-0.0191488 0.112536 0