# vtk DataFile Version 2.0
Lid-driven cavity
ASCII
DATASET STRUCTURED_POINTS
DIMENSIONS 32 32 1
ORIGIN 0.015625 0.015625 0
SPACING 0.03125 0.03125 1
POINT_DATA 1024
SCALARS pressure double 1
LOOKUP_TABLE default
-0.486761
-0.487692
-0.483425
-0.472959
-0.456219
-0.433396
-0.404757
-0.370611
-0.331305
-0.287232
-0.238833
-0.186593
-0.131045
-0.0727614
-0.0123529
0.0495342
0.112225
0.175032
0.237246
0.298139
0.356978
0.413038
0.465608
0.514006
0.557586
0.595753
0.627966
0.653754
0.672721
0.684615
0.689541
0.688662
-0.485832
-0.486785
-0.482084
-0.471367
-0.45456
-0.431778
-0.403236
-0.369216
-0.330057
-0.286144
-0.237916
-0.185856
-0.130493
-0.0723979
-0.0121793
0.0495184
0.112021
0.174643
0.236681
0.297405
0.356084
0.411993
0.464423
0.512692
0.556156
0.594224
0.626365
0.652131
0.671179
0.683334
0.6887
0.687781
-0.490175
-0.491628
-0.486905
-0.476031
-0.45905
-0.436089
-0.407353
-0.373113
-0.333701
-0.289502
-0.240951
-0.188532
-0.132776
-0.0742544
-0.0135777
0.0486069
0.111621
0.174775
0.237357
0.298632
0.35786
0.414308
0.467258
0.516019
0.559937
0.598413
0.630914
0.65699
0.676303
0.688657
0.694034
0.69257
-0.501001
-0.502813
-0.49812
-0.487075
-0.469797
-0.446441
-0.417221
-0.382408
-0.342336
-0.297391
-0.248011
-0.194684
-0.137946
-0.0783722
-0.0165811
0.0467737
0.111006
0.175411
0.23926
0.301805
0.362292
0.419968
0.474097
0.523966
0.568903
0.608287
0.641568
0.668278
0.688059
0.700676
0.70604
0.704183
-0.518688
-0.520719
-0.515992
-0.504687
-0.486955
-0.462975
-0.432971
-0.397225
-0.356075
-0.309913
-0.259186
-0.20439
-0.146067
-0.0848054
-0.0212323
0.0439861
0.11015
0.176532
0.242382
0.306931
0.369398
0.429005
0.484985
0.536594
0.583126
0.623928
0.658419
0.686102
0.706589
0.719614
0.725058
0.722958
-0.543444
-0.54563
-0.540788
-0.5291
-0.510735
-0.485884
-0.454787
-0.417734
-0.375076
-0.327217
-0.274613
-0.217772
-0.157251
-0.0936508
-0.0276141
0.0401755
0.109
0.178104
0.246708
0.314014
0.379208
0.441475
0.500006
0.554012
0.602744
0.645502
0.68166
0.710682
0.732143
0.745754
0.751388
0.749108
-0.575514
-0.577841
-0.572809
-0.560605
-0.541409
-0.515428
-0.482913
-0.44417
-0.399563
-0.34951
-0.294485
-0.235011
-0.171662
-0.105057
-0.0358575
0.0352306
0.107465
0.180059
0.252199
0.323048
0.391752
0.457446
0.519269
0.576375
0.627954
0.673245
0.711565
0.742326
0.765061
0.779454
0.78538
0.782929
-0.615229
-0.617707
-0.612416
-0.599557
-0.579325
-0.551939
-0.517668
-0.476834
-0.42982
-0.377063
-0.319056
-0.256343
-0.189518
-0.119222
-0.0461404
0.0289968
0.105418
0.182303
0.258795
0.334015
0.407057
0.476997
0.542908
0.603873
0.659002
0.707461
0.74849
0.781433
0.805771
0.821162
0.827476
0.824834
-0.663017
-0.665668
-0.660052
-0.646394
-0.624905
-0.595826
-0.559443
-0.5161
-0.466202
-0.41021
-0.348641
-0.282062
-0.211093
-0.136397
-0.0586885
0.021276
0.102693
0.184705
0.26641
0.346877
0.42514
0.500208
0.571072
0.636727
0.696187
0.748519
0.792867
0.82849
0.854804
0.871427
0.878228
0.875363
-0.719405
-0.722255
-0.716248
-0.701637
-0.67866
-0.64758
-0.608708
-0.562415
-0.509133
-0.449351
-0.383615
-0.31252
-0.236712
-0.156885
-0.0737775
0.0118224
0.0990795
0.187095
0.274919
0.361566
0.446003
0.527155
0.603922
0.675189
0.739853
0.796855
0.845217
0.884089
0.9128
0.930919
0.938316
0.935183
-0.785024
-0.788104
-0.781635
-0.765906
-0.74119
-0.707779
-0.666015
-0.616303
-0.559107
-0.494952
-0.424416
-0.348127
-0.266762
-0.181043
-0.0917374
0.000336839
0.0943126
0.189252
0.284155
0.377977
0.469612
0.557897
0.641617
0.71953
0.790387
0.852971
0.90615
0.948929
0.980525
1.00045
1.00856
1.00511
-0.86062
-0.863966
-0.856956
-0.839929
-0.813198
-0.777096
-0.732005
-0.678368
-0.616694
-0.547548
-0.471547
-0.389356
-0.301685
-0.209287
-0.112957
-0.0135399
0.0880677
0.190893
0.293887
0.395947
0.49589
0.592453
0.684298
0.770026
0.848209
0.917437
0.976372
1.02383
1.05889
1.08097
1.08993
1.08609
-0.947066
-0.950719
-0.94308
-0.92455
-0.895498
-0.856307
-0.807409
-0.7493
-0.68254
-0.607743
-0.525574
-0.43674
-0.341986
-0.242095
-0.137889
-0.0302346
0.0799482
0.19166
0.303806
0.415233
0.524682
0.630786
0.732063
0.826938
0.913763
0.990879
1.05669
1.10976
1.14897
1.17363
1.1836
1.1793
-1.04538
-1.04939
-1.04102
-1.02075
-0.989029
-0.9463
-0.893062
-0.829877
-0.757367
-0.676211
-0.587128
-0.490873
-0.388228
-0.280007
-0.167052
-0.0502472
0.0694751
0.191101
0.313505
0.435491
0.555733
0.672758
0.784936
0.890482
0.987487
1.07398
1.14801
1.20783
1.25203
1.27979
1.29095
1.28608
-1.15675
-1.16117
-1.15194
-1.12967
-1.09487
-1.04809
-0.989906
-0.920967
-0.84198
-0.753695
-0.656901
-0.552404
-0.44103
-0.32362
-0.201032
-0.0741556
0.0560785
0.18866
0.322453
0.456239
0.588642
0.718095
0.842813
0.960782
1.06978
1.16743
1.25135
1.31932
1.36957
1.40105
1.41362
1.40803
-1.28258
-1.28746
-1.27723
-1.25262
-1.21426
-1.16283
-1.099
-1.02354
-0.937257
-0.841
-0.735634
-0.622031
-0.50106
-0.373587
-0.240479
-0.102616
0.0390902
0.183658
0.329973
0.476823
0.622817
0.766318
0.905398
1.0378
1.16093
1.27192
1.3678
1.44571
1.50334
1.53934
1.55358
1.54708
-1.42449
-1.42992
-1.4185
-1.39113
-1.34864
-1.29182
-1.22152
-1.13865
-1.04415
-0.938983
-0.824113
-0.700485
-0.569017
-0.430598
-0.286092
-0.136355
0.0177436
0.175285
0.335215
0.496378
0.657413
0.816666
0.9721
1.12122
1.26103
1.38804
1.4985
1.58866
1.65543
1.69697
1.71318
1.7055
-1.58446
-1.59052
-1.57766
-1.54702
-1.49964
-1.43655
-1.35879
-1.26746
-1.16367
-1.04854
-0.923142
-0.78851
-0.645614
-0.495362
-0.338605
-0.176159
-0.00881761
0.162595
0.337145
0.513788
0.691271
0.868001
1.04191
1.21031
1.36979
1.51614
1.64455
1.75005
1.82832
1.87678
1.89531
1.88601
-1.76483
-1.77163
-1.757
-1.72239
-1.66919
-1.59871
-1.51227
-1.41122
-1.29689
-1.17058
-1.03352
-0.886829
-0.73154
-0.568572
-0.398754
-0.222837
-0.0415158
0.144526
0.334535
0.527657
0.722846
0.918692
1.11323
1.3037
1.48631
1.65607
1.80684
1.93185
2.02494
2.08224
2.10353
2.09192
-1.9685
-1.97617
-1.95929
-1.91979
-1.85953
-1.78022
-1.68356
-1.57124
-1.44488
-1.306
-1.15599
-0.996107
-0.827418
-0.650862
-0.467228
-0.277183
-0.0812958
0.119932
0.32599
0.536305
0.750161
0.966495
1.18365
1.39902
1.60864
1.80675
1.98561
2.13599
2.24877
2.3178
2.34244
2.32734
-2.19911
-2.20779
-2.18797
-2.1423
-2.07328
-1.98324
-1.8744
-1.74889
-1.6087
-1.45561
-1.29122
-1.11689
-0.93375
-0.742743
-0.544606
-0.339906
-0.129056
0.0876532
0.310008
0.537808
0.770797
1.00846
1.24974
1.49255
1.73317
1.96538
2.17975
2.36378
2.50377
2.58928
2.61823
2.59756
-2.4613
-2.47117
-2.44738
-2.39367
-2.31355
-2.21023
-2.08667
-1.94556
-1.78933
-1.62011
-1.43968
-1.24953
-1.05084
-0.844533
-0.631283
-0.411541
-0.185553
0.0466239
0.285096
0.530107
0.781973
1.04093
1.30686
1.57874
1.8538
2.12615
2.38521
2.61464
2.79391
2.90456
2.94008
2.91013
-2.7613
-2.77252
-2.74313
-2.6786
-2.58404
-2.46395
-2.32229
-2.16252
-1.98758
-1.79994
-1.60159
-1.39412
-1.17871
-0.956271
-0.727374
-0.492349
-0.251273
-0.00397447
0.249966
0.511234
0.780778
1.05973
1.34919
1.64983
1.96089
2.27837
2.59224
2.88308
3.12132
3.27403
3.32256
3.27731
-3.10769
-3.12033
-3.08263
-3.00299
-2.8891
-2.74739
-2.58319
-2.40086
-2.20394
-1.9952
-1.77681
-1.55036
-1.31703
-1.07762
-0.832616
-0.5822
-0.326291
-0.0645234
0.20378
0.479662
0.764623
1.06066
1.37023
1.69609
2.04067
2.40429
2.7812
3.15296
3.48121
3.70972
3.79007
3.72248
-3.51297
-3.52675
-3.47595
-3.37432
-3.23379
-3.06366
-2.871
-2.66123
-2.43838
-2.20547
-1.96465
-1.71746
-1.46496
-1.20778
-0.946259
-0.680445
-0.41011
-0.134751
0.146464
0.434774
0.731974
1.0406
1.36414
1.7073
2.07634
2.47851
2.91868
3.38932
3.85183
4.22004
4.38317
4.2948
-3.99655
-4.00986
-3.93704
-3.80196
-3.62366
-3.4155
-3.18664
-2.94336
-2.68999
-2.42944
-2.16367
-1.89392
-1.62099
-1.34528
-1.0669
-0.785748
-0.501469
-0.213486
0.0790587
0.37739
0.683249
0.99908
1.32839
1.6767
2.05315
2.47333
2.96014
3.53456
4.18274
4.79899
5.16625
5.09961
-4.59109
-4.59795
-4.48515
-4.29685
-4.06367
-3.80412
-3.52911
-3.24515
-2.95612
-2.6643
-2.37103
-2.07699
-1.78251
-1.4876
-1.19213
-0.895753
-0.598021
-0.298331
0.0040925
0.310275
0.621566
0.939693
1.26698
1.60726
1.96934
2.37525
2.87058
3.52596
4.39895
5.41746
6.23556
6.35046
-5.35699
-5.33655
-5.14533
-4.86871
-4.5545
-4.22558
-3.89249
-3.56001
-3.2302
-2.9038
-2.5809
-2.26126
-1.94448
-1.63008
-1.31752
-1.00622
-0.695601
-0.38506
-0.0739442
0.238507
0.5531
0.870514
1.19117
1.51579
1.84851
2.21068
2.66916
3.35562
4.45448
6.04425
7.73011
8.44438
-6.41806
-6.29726
-5.94065
-5.51345
-5.08054
-4.66081
-4.25766
-3.8701
-3.49604
-3.13338
-2.78024
-2.43501
-2.09636
-1.76314
-1.43435
-1.10911
-0.786672
-0.466445
-0.147847
0.169697
0.48659
0.802744
1.11724
1.42855
1.73729
2.05856
2.47329
3.16229
4.45942
6.74471
9.86314
12.0658
-8.05344
-7.56625
-6.84716
-6.16966
-5.57607
-5.05012
-4.57291
-4.1311
-3.71557
-3.3201
-2.94033
-2.57311
-2.21607
-1.86732
-1.52538
-1.18906
-0.857476
-0.529992
-0.206015
0.114983
0.433264
0.748563
1.06001
1.36688
1.67231
1.99609
2.43808
3.2185
4.78918
7.87228
13.0074
18.3317
-10.9053
-9.07099
-7.61988
-6.60044
-5.84403
-5.23483
-4.71103
-4.24038
-3.80529
-3.39554
-3.00478
-2.62878
-2.26455
-1.90985
-1.563
-1.22269
-0.888035
-0.558451
-0.23329
0.0879701
0.405593
0.719568
1.03011
1.3397
1.65947
2.02898
2.57982
3.59077
5.64491
9.8501
17.8739
29.0176
-17.1488
-9.79671
-7.251
-6.14163
-5.47209
-4.95495
-4.50175
-4.08208
-3.68378
-3.30104
-2.93049
-2.56993
-2.2177
-1.8725
-1.53329
-1.1993
-0.870007
-0.545045
-0.223922
0.093718
0.408096
0.719574
1.02982
1.34546
1.6879
2.11955
2.79897
4.06285
6.62211
12.0369
24.1359
51.9916
VECTORS velocity double
-2.31093e-05 2.31094e-05 0
-0.000197024 0.000150805 0
-0.000580883 0.000233054 0
-0.00108123 0.000267289 0
-0.00162229 0.000273776 0
-0.00216366 0.000267589 0
-0.00268714 0.00025589 0
-0.00318422 0.000241195 0
-0.00364956 0.000224142 0
-0.00407852 0.000204822 0
-0.00446658 0.000183239 0
-0.00480924 0.000159422 0
-0.0051021 0.000133438 0
-0.00534093 0.000105392 0
-0.00552177 7.54404e-05 0
-0.00564101 4.37984e-05 0
-0.00569556 1.07521e-05 0
-0.00568286 -2.34438e-05 0
-0.00560091 -5.85158e-05 0
-0.0054484 -9.399e-05 0
-0.00522505 -0.000129355 0
-0.00493164 -0.000164062 0
-0.00457005 -0.000197527 0
-0.00414339 -0.000229132 0
-0.00365604 -0.000258217 0
-0.0031139 -0.000283927 0
-0.00252529 -0.000304676 0
-0.0019039 -0.000316719 0
-0.00127578 -0.000311405 0
-0.000692147 -0.000272225 0
-0.000241875 -0.000178047 0
-3.19141e-05 -3.19142e-05 0
-0.000153174 0.000199393 0
-0.000696741 0.000692003 0
-0.00162222 0.0010012 0
-0.00275732 0.00113459 0
-0.00397188 0.0011621 0
-0.00518869 0.00113745 0
-0.00636713 0.00108795 0
-0.00748517 0.00102426 0
-0.00852845 0.000949696 0
-0.00948541 0.000865189 0
-0.0103456 0.000771084 0
-0.011099 0.000667711 0
-0.0117365 0.000555501 0
-0.0122494 0.000435012 0
-0.0126297 0.000306961 0
-0.0128704 0.00017227 0
-0.0129657 3.20964e-05 0
-0.0129109 -0.00011233 0
-0.0127029 -0.00025957 0
-0.0123405 -0.000407788 0
-0.0118245 -0.000554975 0
-0.0111574 -0.000698947 0
-0.0103443 -0.000837346 0
-0.00939257 -0.000967654 0
-0.00831256 -0.00108706 0
-0.007118 -0.00119178 0
-0.00582846 -0.00127496 0
-0.00447487 -0.00132142 0
-0.00311116 -0.00129854 0
-0.00183221 -0.00114766 0
-0.000788805 -0.000796287 0
-0.000174306 -0.000238135 0
-0.000243414 0.000595982 0
-0.00103713 0.00163269 0
-0.00230785 0.00225671 0
-0.00382215 0.00252848 0
-0.00542462 0.00258524 0
-0.00702441 0.00253091 0
-0.00857174 0.00242026 0
-0.0100379 0.00227615 0
-0.0114035 0.00210665 0
-0.0126528 0.00191455 0
-0.0137721 0.00170117 0
-0.0147486 0.00146762 0
-0.0155706 0.00121509 0
-0.0162274 0.000945019 0
-0.0167092 0.000659095 0
-0.0170077 0.000359372 0
-0.0171158 4.83501e-05 0
-0.0170282 -0.000271015 0
-0.0167418 -0.000595238 0
-0.0162558 -0.000920507 0
-0.0155715 -0.00124262 0
-0.014693 -0.00155695 0
-0.013627 -0.00185846 0
-0.0123835 -0.0021417 0
-0.0109761 -0.00240044 0
-0.00942286 -0.00262616 0
-0.00774927 -0.00280372 0
-0.00599413 -0.00290138 0
-0.00422237 -0.00285406 0
-0.0025449 -0.00254857 0
-0.00114053 -0.00184316 0
-0.000266926 -0.000679367 0
-0.000290682 0.00113008 0
-0.00122436 0.00282599 0
-0.00269514 0.00380492 0
-0.00442611 0.00422555 0
-0.00624474 0.00430928 0
-0.00805388 0.00421579 0
-0.00980059 0.00402941 0
-0.0114537 0.00378628 0
-0.0129916 0.0035 0
-0.0143969 0.00317577 0
-0.0156539 0.00281629 0
-0.0167487 0.00242379 0
-0.0176683 0.00200055 0
-0.0184011 0.00154913 0
-0.0189368 0.00107245 0
-0.0192662 0.000573931 0
-0.019382 5.76599e-05 0
-0.0192785 -0.000471349 0
-0.0189525 -0.00100732 0
-0.0184028 -0.00154416 0
-0.0176309 -0.00207512 0
-0.0166412 -0.00259271 0
-0.0154412 -0.00308875 0
-0.0140418 -0.00355428 0
-0.0124581 -0.00397892 0
-0.0107105 -0.00434855 0
-0.00882681 -0.00463858 0
-0.0068494 -0.00479906 0
-0.00484783 -0.00472972 0
-0.00294151 -0.00425669 0
-0.00132907 -0.00315185 0
-0.00031353 -0.00125982 0
-0.000314538 0.0017353 0
-0.00132594 0.00416585 0
-0.00291601 0.0055259 0
-0.00477954 0.00609907 0
-0.00673045 0.00620529 0
-0.00866662 0.00606509 0
-0.0105334 0.00579365 0
-0.0122989 0.00544063 0
-0.0139406 0.00502525 0
-0.0154401 0.00455531 0
-0.0167814 0.00403508 0
-0.0179497 0.00346806 0
-0.0189315 0.00285776 0
-0.0197148 0.002208 0
-0.0202886 0.00152305 0
-0.0206437 0.000807783 0
-0.020772 6.79506e-05 0
-0.0206677 -0.000689431 0
-0.0203266 -0.0014564 0
-0.0197469 -0.00222444 0
-0.0189295 -0.00298405 0
-0.0178784 -0.00372466 0
-0.0166007 -0.00443458 0
-0.0151076 -0.00510094 0
-0.0134147 -0.00570878 0
-0.0115433 -0.00623781 0
-0.00952282 -0.00665341 0
-0.00739794 -0.00688651 0
-0.00524222 -0.00679956 0
-0.00318334 -0.00615206 0
-0.00143728 -0.00461499 0
-0.000338077 -0.00191143 0
-0.000330236 0.00238007 0
-0.00139599 0.00559824 0
-0.00307417 0.00736176 0
-0.00503942 0.008092 0
-0.0070939 0.00821774 0
-0.00913043 0.00802534 0
-0.0110926 0.00766239 0
-0.0129477 0.00719242 0
-0.0146729 0.00664031 0
-0.0162495 0.00601644 0
-0.017661 0.00532673 0
-0.0188923 0.00457598 0
-0.0199296 0.00376899 0
-0.0207604 0.00291082 0
-0.0213734 0.00200707 0
-0.0217587 0.00106404 0
-0.0219077 8.90611e-05 0
-0.0218135 -0.000909056 0
-0.021471 -0.00192035 0
-0.0208773 -0.00293388 0
-0.020032 -0.00393729 0
-0.0189379 -0.00491671 0
-0.0176014 -0.00585669 0
-0.0160333 -0.00674006 0
-0.014249 -0.00754676 0
-0.0122706 -0.00824974 0
-0.0101289 -0.00880354 0
-0.00787158 -0.00911861 0
-0.00557739 -0.00901736 0
-0.00338387 -0.00818667 0
-0.00152418 -0.00618612 0
-0.000357088 -0.00260659 0
-0.000345589 0.0030559 0
-0.00146388 0.00710646 0
-0.0032276 0.00929545 0
-0.00529328 0.0101892 0
-0.00745173 0.0103334 0
-0.00959023 0.0100847 0
-0.0116501 0.00962503 0
-0.0135976 0.00903242 0
-0.0154097 0.00833754 0
-0.0170672 0.00755341 0
-0.0185536 0.00668758 0
-0.0198533 0.00574618 0
-0.0209524 0.0047352 0
-0.0218379 0.0036609 0
-0.0224979 0.00253006 0
-0.0229219 0.00135024 0
-0.0231002 0.000130186 0
-0.0230248 -0.00111977 0
-0.022689 -0.00238785 0
-0.0220884 -0.00366078 0
-0.0212207 -0.00492335 0
-0.0200873 -0.00615822 0
-0.018693 -0.0073459 0
-0.0170476 -0.00846442 0
-0.0151663 -0.00948796 0
-0.0130715 -0.0103818 0
-0.0107962 -0.0110884 0
-0.00839171 -0.0114956 0
-0.00594404 -0.0113822 0
-0.00360265 -0.0103567 0
-0.00161948 -0.00785897 0
-0.000378317 -0.003342 0
-0.000363751 0.00376524 0
-0.00154239 0.00869405 0
-0.00340281 0.011332 0
-0.00558186 0.0123974 0
-0.00785817 0.01256 0
-0.0101128 0.0122513 0
-0.0122844 0.0116898 0
-0.014338 0.0109688 0
-0.0162499 0.0101251 0
-0.018001 0.00917446 0
-0.0195742 0.00812604 0
-0.020954 0.00698728 0
-0.0221261 0.0057653 0
-0.0230772 0.00446737 0
-0.0237948 0.00310126 0
-0.0242673 0.00167553 0
-0.0244841 0.000200021 0
-0.0244355 -0.00131367 0
-0.0241129 -0.00285224 0
-0.0235097 -0.00440025 0
-0.0226215 -0.0059397 0
-0.0214472 -0.00744972 0
-0.0199894 -0.00890639 0
-0.0182564 -0.0102824 0
-0.0162626 -0.0115452 0
-0.0140309 -0.0126511 0
-0.0115968 -0.0135285 0
-0.00901654 -0.0140401 0
-0.00638521 -0.0139167 0
-0.00386701 -0.0126818 0
-0.00173586 -0.00964819 0
-0.000404743 -0.00412506 0
-0.000385841 0.00451483 0
-0.00163657 0.0103738 0
-0.0036109 0.013487 0
-0.0059227 0.0147333 0
-0.00833675 0.0149145 0
-0.0107271 0.0145418 0
-0.013029 0.0138728 0
-0.0152064 0.0130169 0
-0.0172349 0.0120175 0
-0.0190949 0.0108932 0
-0.0207695 0.00965507 0
-0.0222431 0.00831167 0
-0.0235012 0.00687114 0
-0.0245302 0.0053416 0
-0.0253171 0.00373149 0
-0.0258493 0.00205003 0
-0.0261147 0.000307727 0
-0.0261018 -0.00148295 0
-0.0257998 -0.00330751 0
-0.0251992 -0.00514875 0
-0.0242925 -0.00698605 0
-0.0230753 -0.00879494 0
-0.0215474 -0.0105468 0
-0.0197144 -0.012208 0
-0.0175893 -0.0137384 0
-0.0151953 -0.0150835 0
-0.0125707 -0.0161549 0
-0.00977818 -0.0167865 0
-0.00692412 -0.0166557 0
-0.00419093 -0.0151942 0
-0.00187926 -0.0115786 0
-0.000437586 -0.00496739 0
-0.000412336 0.00531301 0
-0.00174869 0.0121627 0
-0.0038572 0.0157809 0
-0.00632442 0.0172184 0
-0.00889905 0.0174181 0
-0.0114471 0.0169766 0
-0.0139002 0.016193 0
-0.0162206 0.0151944 0
-0.0183834 0.0140311 0
-0.0203689 0.0127251 0
-0.0221602 0.0112891 0
-0.0237419 0.00973294 0
-0.0250996 0.00806568 0
-0.0262196 0.006296 0
-0.0270883 0.00443266 0
-0.0276923 0.00248506 0
-0.0280181 0.000463848 0
-0.0280518 -0.00161823 0
-0.02778 -0.00374605 0
-0.0271897 -0.00590117 0
-0.0262692 -0.00806077 0
-0.0250097 -0.0101969 0
-0.0234067 -0.0122757 0
-0.0214618 -0.014257 0
-0.0191858 -0.0160907 0
-0.0166015 -0.0177094 0
-0.0137503 -0.0190048 0
-0.0107026 -0.0197767 0
-0.00757927 -0.0196429 0
-0.00458525 -0.0179342 0
-0.00205412 -0.0136814 0
-0.000477718 -0.00588269 0
-0.000443621 0.00616897 0
-0.00188052 0.01408 0
-0.00414563 0.0182372 0
-0.00679326 0.0198769 0
-0.00955339 0.0200943 0
-0.0122827 0.0195778 0
-0.0149088 0.0186711 0
-0.0173923 0.0175202 0
-0.0197076 0.0161834 0
-0.0218352 0.014686 0
-0.0237585 0.0130428 0
-0.0254627 0.011265 0
-0.0269337 0.00936232 0
-0.0281581 0.00734367 0
-0.0291221 0.00521776 0
-0.0298116 0.00299351 0
-0.0302115 0.000681009 0
-0.0303056 -0.0017075 0
-0.0300771 -0.00415711 0
-0.0295085 -0.00664902 0
-0.0285831 -0.00915883 0
-0.027286 -0.0116554 0
-0.0256063 -0.0140999 0
-0.0235403 -0.0164438 0
-0.0210942 -0.018626 0
-0.0182898 -0.0205628 0
-0.0151715 -0.0221211 0
-0.0118191 -0.0230604 0
-0.00837149 -0.0229303 0
-0.00506214 -0.0209502 0
-0.00226546 -0.0159932 0
-0.000526176 -0.00688659 0
-0.000480181 0.00709277 0
-0.00203408 0.016147 0
-0.00448049 0.0208817 0
-0.00733586 0.0227354 0
-0.0103084 0.0229684 0
-0.0132441 0.0223687 0
-0.0160659 0.0213281 0
-0.0187328 0.0200135 0
-0.0212187 0.0184915 0
-0.0235047 0.0167916 0
-0.0255749 0.0149308 0
-0.0274154 0.0129217 0
-0.0290132 0.0107745 0
-0.0303557 0.00849825 0
-0.0314292 0.00610082 0
-0.0322193 0.00359003 0
-0.0327094 0.000974434 0
-0.0328809 -0.00173533 0
-0.032713 -0.00452572 0
-0.0321831 -0.00737885 0
-0.0312676 -0.0102699 0
-0.0299435 -0.0131655 0
-0.0281916 -0.0160214 0
-0.0259993 -0.0187806 0
-0.0233663 -0.0213683 0
-0.0203108 -0.0236803 0
-0.01688 -0.0255527 0
-0.0131652 -0.0266959 0
-0.00932766 -0.02658 0
-0.0056374 -0.0243001 0
-0.00251987 -0.0185575 0
-0.000584336 -0.0079971 0
-0.00052268 0.00809563 0
-0.00221204 0.0183874 0
-0.00486728 0.023743 0
-0.00796046 0.0258227 0
-0.0111745 0.0260677 0
-0.0143432 0.0253739 0
-0.0173843 0.0241859 0
-0.020255 0.0226932 0
-0.0229293 0.0209721 0
-0.0253891 0.0190567 0
-0.0276199 0.0169667 0
-0.0296097 0.014716 0
-0.0313471 0.0123155 0
-0.032821 0.00977355 0
-0.0340188 0.00709688 0
-0.0349259 0.00429118 0
-0.0355248 0.00136232 0
-0.0357945 -0.00168204 0
-0.03571 -0.00483143 0
-0.0352423 -0.00807071 0
-0.0343595 -0.0113765 0
-0.033028 -0.0147144 0
-0.0312165 -0.018036 0
-0.0289001 -0.0212747 0
-0.0260674 -0.0243398 0
-0.0227302 -0.0271014 0
-0.0189366 -0.029356 0
-0.0147911 -0.0307529 0
-0.0104841 -0.0306676 0
-0.00633236 -0.0280545 0
-0.0028262 -0.0214268 0
-0.000654034 -0.00923547 0
-0.000572026 0.00919034 0
-0.00241798 0.020828 0
-0.0053132 0.0268529 0
-0.00867772 0.0291705 0
-0.012165 0.0294211 0
-0.015595 0.028619 0
-0.0188796 0.0272665 0
-0.0219744 0.025578 0
-0.0248539 0.023641 0
-0.0275014 0.021495 0
-0.029905 0.0191628 0
-0.0320553 0.0166599 0
-0.0339436 0.0139975 0
-0.0355613 0.0111831 0
-0.0368978 0.00822155 0
-0.0379394 0.00511528 0
-0.0386684 0.0018661 0
-0.0390614 -0.00152309 0
-0.0390892 -0.00504709 0
-0.0387158 -0.00869612 0
-0.0378989 -0.0124509 0
-0.0365915 -0.0162788 0
-0.0347457 -0.0201288 0
-0.0323187 -0.0239253 0
-0.029282 -0.0275587 0
-0.0256347 -0.030867 0
-0.021423 -0.0335957 0
-0.016766 -0.0353156 0
-0.0118911 -0.0352869 0
-0.0071766 -0.0323013 0
-0.00319662 -0.0246661 0
-0.000737742 -0.0106272 0
-0.00062946 0.0103918 0
-0.00265675 0.0234998 0
-0.0058279 0.0302475 0
-0.00950166 0.0328142 0
-0.0132973 0.0330604 0
-0.0170186 0.032131 0
-0.0205715 0.030592 0
-0.0239099 0.0286858 0
-0.0270097 0.0265125 0
-0.0298567 0.0241181 0
-0.0324425 0.0215291 0
-0.0347617 0.0187629 0
-0.0368097 0.0158309 0
-0.0385818 0.0127395 0
-0.0400705 0.00949042 0
-0.0412645 0.00608207 0
-0.0421468 0.00251045 0
-0.0426926 -0.0012285 0
-0.0428689 -0.00513757 0
-0.0426321 -0.00921588 0
-0.0419278 -0.0134524 0
-0.0406924 -0.0178203 0
-0.038856 -0.0222696 0
-0.0363499 -0.0267175 0
-0.0331191 -0.031034 0
-0.0291408 -0.0350173 0
-0.0244524 -0.0383456 0
-0.0191877 -0.0404874 0
-0.0136207 -0.040557 0
-0.00821259 -0.0371539 0
-0.00364832 -0.0283579 0
-0.000838861 -0.0122038 0
-0.000696703 0.011718 0
-0.00293495 0.0264392 0
-0.00642434 0.0339686 0
-0.0104509 0.0367934 0
-0.0145939 0.0370198 0
-0.0186388 0.0359378 0
-0.0224847 0.034184 0
-0.026085 0.0320325 0
-0.0294175 0.029598 0
-0.0324722 0.0269343 0
-0.0352457 0.0240723 0
-0.0377381 0.0210313 0
-0.0399509 0.0178233 0
-0.0418845 0.0144528 0
-0.0435368 0.0109181 0
-0.0449003 0.00721195 0
-0.0459604 0.00332288 0
-0.0466928 -0.000762683 0
-0.0470613 -0.00505864 0
-0.0470152 -0.00957768 0
-0.0464875 -0.0143226 0
-0.0453939 -0.019279 0
-0.0436364 -0.0244047 0
-0.0411105 -0.0296143 0
-0.0377207 -0.0347579 0
-0.033407 -0.0395854 0
-0.028185 -0.0436878 0
-0.0221988 -0.0463961 0
-0.0157809 -0.0466331 0
-0.00950446 -0.0427624 0
-0.00420715 -0.0326109 0
-0.000962348 -0.0140051 0
-0.000776166 0.0131909 0
-0.00326176 0.0296901 0
-0.00712026 0.0380656 0
-0.0115506 0.0411534 0
-0.0160847 0.0413369 0
-0.0204874 0.0400683 0
-0.0246509 0.0380631 0
-0.0285287 0.0356315 0
-0.0321025 0.0329053 0
-0.035368 0.0299474 0
-0.0383291 0.0267938 0
-0.0409934 0.0234666 0
-0.0433703 0.0199777 0
-0.0454678 0.0163297 0
-0.047291 0.0125166 0
-0.0488386 0.00852454 0
-0.0501009 0.0043327 0
-0.0510563 -8.4739e-05 0
-0.0516681 -0.00475631 0
-0.0518803 -0.0097138 0
-0.0516131 -0.0149815 0
-0.0507597 -0.020567 0
-0.0491873 -0.0264466 0
-0.046743 -0.0325427 0
-0.0432718 -0.0386905 0
-0.0386522 -0.0445861 0
-0.0328536 -0.0497077 0
-0.0260167 -0.0531992 0
-0.0185421 -0.0537225 0
-0.0111562 -0.0493353 0
-0.00491522 -0.0375762 0
-0.00111617 -0.0160836 0
-0.000871289 0.0148383 0
-0.00365008 0.0333071 0
-0.00794019 0.0425972 0
-0.0128347 0.0459465 0
-0.0178096 0.0460529 0
-0.0226062 0.0445516 0
-0.0271104 0.0422475 0
-0.0312774 0.0394919 0
-0.035095 0.0364363 0
-0.0385677 0.0331546 0
-0.0417086 0.0296886 0
-0.0445357 0.0260632 0
-0.0470684 0.0222906 0
-0.049325 0.0183709 0
-0.05132 0.0142935 0
-0.0530614 0.0100367 0
-0.0545476 0.00556902 0
-0.0557633 0.000850054 0
-0.0566752 -0.00416735 0
-0.057226 -0.00953977 0
-0.0573262 -0.0153226 0
-0.0568469 -0.0215585 0
-0.0556153 -0.0282591 0
-0.0534166 -0.0353732 0
-0.0500119 -0.0427359 0
-0.0451811 -0.049991 0
-0.0388049 -0.0564776 0
-0.0309858 -0.0610854 0
-0.0221897 -0.062107 0
-0.0133505 -0.0571759 0
-0.00584901 -0.0434781 0
-0.00131501 -0.0185148 0
-0.000987085 0.0166967 0
-0.00411838 0.0373588 0
-0.00891859 0.0476358 0
-0.01435 0.0512338 0
-0.0198221 0.0512128 0
-0.0250502 0.0494164 0
-0.029915 0.0467515 0
-0.0343765 0.0436163 0
-0.0384323 0.0401853 0
-0.0420987 0.0365445 0
-0.0454017 0.0327425 0
-0.0483722 0.028807 0
-0.0510427 0.02475 0
-0.0534438 0.0205693 0
-0.0556026 0.0162489 0
-0.0575394 0.0117594 0
-0.0592645 0.00705761 0
-0.0607744 0.00208701 0
-0.0620451 -0.00322169 0
-0.0630248 -0.00895493 0
-0.0636221 -0.0152099 0
-0.0636915 -0.0220811 0
-0.0630202 -0.0296395 0
-0.0613211 -0.0378906 0
-0.0582427 -0.0467017 0
-0.0534159 -0.0556828 0
-0.0465604 -0.0640175 0
-0.0376651 -0.0702599 0
-0.0272233 -0.0721705 0
-0.0164291 -0.0667458 0
-0.00716043 -0.0506783 0
-0.00158961 -0.0214194 0
-0.00113104 0.0188148 0
-0.00469373 0.0419346 0
-0.0101047 0.0532712 0
-0.0161617 0.0570868 0
-0.0221948 0.0568649 0
-0.0278916 0.0546891 0
-0.0331309 0.0515829 0
-0.0378826 0.0479982 0
-0.0421591 0.0441357 0
-0.0459931 0.0400945 0
-0.0494274 0.0359299 0
-0.0525093 0.0316721 0
-0.0552867 0.0273327 0
-0.0578055 0.0229065 0
-0.0601077 0.0183727 0
-0.0622293 0.013694 0
-0.0641973 0.0088162 0
-0.0660256 0.00366655 0
-0.0677081 -0.00184804 0
-0.06921 -0.00784699 0
-0.0704514 -0.0144791 0
-0.0712847 -0.0219092 0
-0.0714686 -0.0302987 0
-0.0706429 -0.0397561 0
-0.0683191 -0.0502383 0
-0.063916 -0.0613762 0
-0.0568819 -0.0722138 0
-0.0469476 -0.0808931 0
-0.0345109 -0.0844158 0
-0.021039 -0.0787665 0
-0.00916114 -0.0598042 0
-0.00200824 -0.0250172 0
-0.00131466 0.0212605 0
-0.00541666 0.0471536 0
-0.0115701 0.0596166 0
-0.0183615 0.0635899 0
-0.0250263 0.0630598 0
-0.0312253 0.0603901 0
-0.0368424 0.0567383 0
-0.0418653 0.0526174 0
-0.0463284 0.0482561 0
-0.0502871 0.0437668 0
-0.0538058 0.0392106 0
-0.0569513 0.0346188 0
-0.0597896 0.0300016 0
-0.0623839 0.0253507 0
-0.0647935 0.0206403 0
-0.0670728 0.0158272 0
-0.0692697 0.0108479 0
-0.0714223 0.0056158 0
-0.0735529 1.58837e-05 0
-0.0756586 -0.00610345 0
-0.0776925 -0.0129473 0
-0.0795329 -0.0207674 0
-0.0809393 -0.0298502 0
-0.0815001 -0.0404695 0
-0.0805831 -0.0527657 0
-0.0773309 -0.0665042 0
-0.0707701 -0.0806806 0
-0.0601303 -0.0930003 0
-0.0454419 -0.0994338 0
-0.0283237 -0.0943387 0
-0.0124608 -0.0719728 0
-0.00271841 -0.0297439 0
-0.00155625 0.0241314 0
-0.00634951 0.053178 0
-0.0134204 0.0668165 0
-0.0210791 0.07084 0
-0.0284503 0.0698457 0
-0.0351747 0.0665277 0
-0.0411539 0.0621971 0
-0.0464063 0.0574339 0
-0.050999 0.0524954 0
-0.0550178 0.0475051 0
-0.0585538 0.0425269 0
-0.0616966 0.0375908 0
-0.0645321 0.0327035 0
-0.0671421 0.027853 0
-0.069604 0.0230095 0
-0.0719923 0.0181256 0
-0.0743788 0.0131328 0
-0.0768319 0.00793653 0
-0.0794129 0.00240686 0
-0.0821681 -0.00363366 0
-0.0851121 -0.0104392 0
-0.0881914 -0.0183558 0
-0.0912211 -0.0278255 0
-0.093794 -0.0393606 0
-0.0951651 -0.0534205 0
-0.0941592 -0.0701074 0
-0.0892095 -0.088588 0
-0.078705 -0.106237 0
-0.0618413 -0.117749 0
-0.0400023 -0.114981 0
-0.0181111 -0.089085 0
-0.00401141 -0.0364737 0
-0.00188588 0.0275736 0
-0.0075903 0.0602335 0
-0.0158131 0.0750547 0
-0.0244969 0.0789443 0
-0.0326438 0.0772595 0
-0.0398923 0.0730867 0
-0.0461851 0.0679101 0
-0.051591 0.0623791 0
-0.0562239 0.0567758 0
-0.0602095 0.0512291 0
-0.0636704 0.0457998 0
-0.0667219 0.0405121 0
-0.0694705 0.0353664 0
-0.0720157 0.0303453 0
-0.0744524 0.0254159 0
-0.0768746 0.0205297 0
-0.0793779 0.0156187 0
-0.0820637 0.0105895 0
-0.0850396 0.00531084 0
-0.0884163 -0.000405709 0
-0.0922991 -0.00684042 0
-0.096754 -0.0144204 0
-0.101729 -0.0237563 0
-0.106916 -0.0356695 0
-0.111544 -0.0511128 0
-0.114135 -0.0708301 0
-0.112393 -0.0945565 0
-0.103509 -0.119658 0
-0.0852332 -0.139468 0
-0.0579735 -0.14236 0
-0.0275888 -0.113981 0
-0.00639045 -0.0468756 0
-0.00235447 0.0318139 0
-0.00929514 0.0686383 0
-0.0189805 0.0845582 0
-0.0288622 0.0880062 0
-0.0378237 0.085306 0
-0.0455422 0.0800073 0
-0.0520413 0.0737814 0
-0.0574689 0.0673412 0
-0.0620041 0.0609818 0
-0.0658218 0.0548263 0
-0.0690811 0.0489229 0
-0.0719233 0.0432827 0
-0.0744741 0.0378951 0
-0.076848 0.0327356 0
-0.0791539 0.0277683 0
-0.0815006 0.0229461 0
-0.0840037 0.0182086 0
-0.0867929 0.0134745 0
-0.0900203 0.00862906 0
-0.0938669 0.00349945 0
-0.0985418 -0.00218783 0
-0.104269 -0.00889109 0
-0.111209 -0.0173704 0
-0.119276 -0.0288012 0
-0.127815 -0.0448143 0
-0.135169 -0.0671842 0
-0.138328 -0.0967846 0
-0.133089 -0.131553 0
-0.115216 -0.163721 0
-0.0831141 -0.17747 0
-0.0423692 -0.150002 0
-0.0105784 -0.0638444 0
-0.00304945 0.0372178 0
-0.0117104 0.078836 0
-0.0232483 0.0955838 0
-0.0344715 0.0980854 0
-0.0441936 0.0939104 0
-0.0522138 0.0871417 0
-0.0587002 0.0796326 0
-0.063919 0.0721363 0
-0.0681348 0.0649376 0
-0.0715806 0.0581341 0
-0.0744533 0.0517472 0
-0.0769177 0.045765 0
-0.0791144 0.0401602 0
-0.0811672 0.0348974 0
-0.0831917 0.0299369 0
-0.0853032 0.0252357 0
-0.087626 0.020745 0
-0.0903049 0.0164062 0
-0.0935189 0.0121387 0
-0.0974989 0.00781634 0
-0.102544 0.00321552 0
-0.109023 -0.0020883 0
-0.117335 -0.00892138 0
-0.127719 -0.0187991 0
-0.139841 -0.0341556 0
-0.152154 -0.058176 0
-0.161266 -0.0935211 0
-0.161816 -0.139507 0
-0.147432 -0.188023 0
-0.113465 -0.219236 0
-0.0629306 -0.199515 0
-0.0173149 -0.0917376 0
-0.00412048 0.0443877 0
-0.0152082 0.0914147 0
-0.0290113 0.108346 0
-0.0415554 0.10909 0
-0.0517395 0.102812 0
-0.0596399 0.0941608 0
-0.0656649 0.0851248 0
-0.0702463 0.0764442 0
-0.0737528 0.0683521 0
-0.0764789 0.0608916 0
-0.078655 0.0540384 0
-0.0804625 0.0477457 0
-0.082048 0.0419617 0
-0.0835357 0.0366363 0
-0.085037 0.0317239 0
-0.086661 0.0271842 0
-0.0885234 0.0229819 0
-0.0907595 0.0190844 0
-0.09354 0.0154551 0
-0.097095 0.0120349 0
-0.101744 0.00869172 0
-0.107926 0.00509635 0
-0.116183 0.000462342 0
-0.127065 -0.00691715 0
-0.140776 -0.0202045 0
-0.156408 -0.0441814 0
-0.170979 -0.0838324 0
-0.178875 -0.14075 0
-0.172174 -0.207864 0
-0.142521 -0.263016 0
-0.0872376 -0.261552 0
-0.0267506 -0.135803 0
-0.00581764 0.0543259 0
-0.0202915 0.107038 0
-0.0365534 0.122788 0
-0.0498743 0.120513 0
-0.059624 0.111322 0
-0.0664234 0.10035 0
-0.0710483 0.0895856 0
-0.0741414 0.079658 0
-0.0761828 0.0706862 0
-0.0775201 0.0626209 0
-0.0784043 0.0553693 0
-0.079019 0.0488371 0
-0.0795039 0.0429408 0
-0.0799699 0.0376108 0
-0.0805113 0.032792 0
-0.0812145 0.0284432 0
-0.0821664 0.0245373 0
-0.0834635 0.021062 0
-0.0852232 0.0180177 0
-0.0876036 0.0154077 0
-0.0908328 0.0131977 0
-0.0952551 0.0111944 0
-0.101382 0.00874846 0
-0.109901 0.00419663 0
-0.121547 -0.00596101 0