# vtk DataFile Version 2.0
Lid-driven cavity
ASCII
DATASET STRUCTURED_POINTS
DIMENSIONS 32 32 1
ORIGIN 0.015625 0.015625 0
SPACING 0.03125 0.03125 1
POINT_DATA 1024
SCALARS pressure double 1
LOOKUP_TABLE default
5.52615
5.48684
5.44038
5.40916
5.40403
5.42899
5.48486
5.57144
5.68844
5.83583
6.01371
6.22194
6.45976
6.72536
7.01547
7.3251
7.64744
7.97404
8.29464
8.59775
8.87164
9.10561
9.29134
9.42397
9.50296
9.53226
9.51993
9.47722
9.41756
9.3556
9.30657
9.28482
5.56547
5.52513
5.49003
5.4714
5.47598
5.50693
5.56541
5.6518
5.76629
5.90908
6.08036
6.27999
6.50721
6.76027
7.03607
7.32991
7.63542
7.94487
8.24879
8.53644
8.79697
9.02053
9.19951
9.32964
9.41066
9.44651
9.44477
9.41572
9.3711
9.32316
9.28369
9.26305
5.61282
5.5577
5.52166
5.50762
5.51756
5.55242
5.61255
5.6982
5.80973
5.94759
6.11225
6.30385
6.52196
6.7652
7.03089
7.31478
7.61091
7.91196
8.20874
8.49062
8.74673
8.96712
9.14408
9.27326
9.35445
9.39166
9.39253
9.36715
9.32655
9.28151
9.24162
9.21443
5.64257
5.5693
5.52684
5.5125
5.52426
5.56067
5.62088
5.70469
5.81244
5.94485
6.10273
6.28674
6.497
6.73276
6.99199
7.27104
7.56435
7.86467
8.16271
8.44744
8.70737
8.93172
9.11192
9.24295
9.32423
9.35985
9.35784
9.32872
9.28375
9.23337
9.18622
9.14852
5.63668
5.54577
5.49507
5.47784
5.48889
5.5247
5.58324
5.66381
5.76669
5.89284
6.04356
6.22012
6.42339
6.65346
6.90913
7.18756
7.48371
7.79003
8.09695
8.39278
8.66486
8.90096
9.09091
9.22826
9.31156
9.34472
9.33632
9.29796
9.24204
9.17987
9.12048
9.07026
5.58148
5.47461
5.41551
5.39416
5.40281
5.43619
5.49133
5.56709
5.66374
5.78252
5.92526
6.09394
6.29034
6.51553
6.76939
7.05009
7.35348
7.67151
7.99433
8.30944
8.60271
8.85977
9.06802
9.21865
9.30843
9.34057
9.32418
9.27248
9.20006
9.12039
9.04431
8.97967
5.46567
5.34464
5.27762
5.2516
5.25662
5.28602
5.33605
5.40525
5.49393
5.60365
5.73679
5.89614
6.08447
6.30402
6.55596
6.83979
7.15279
7.48668
7.8315
8.17412
8.49869
8.78813
9.02634
9.20084
9.30529
9.34109
9.31752
9.24978
9.15585
9.0529
8.95509
8.87293
5.27934
5.14578
5.0714
5.04039
5.04076
5.06464
5.10767
5.16815
5.24647
5.34447
5.46512
5.61201
5.789
5.99969
6.24681
6.53162
6.85325
7.20462
7.5759
7.95382
8.32093
8.6569
8.94099
9.15526
9.28814
9.33738
9.31117
9.22682
9.10688
8.97423
8.84829
8.74354
5.01349
4.86883
4.78758
4.75117
4.74574
4.76234
4.79604
4.84494
4.90943
4.99162
5.09494
5.2238
5.38321
5.57828
5.8137
6.09294
6.41757
6.78387
7.18285
7.60227
8.02361
8.42314
8.77424
9.05129
9.23452
9.31479
9.29683
9.19911
9.04989
8.88032
8.71786
8.58299
4.66003
4.50557
4.41772
4.37525
4.36253
4.36958
4.39089
4.42428
4.47002
4.5303
4.60891
4.71094
4.84256
5.01063
5.22217
5.48355
5.79951
6.1716
6.59404
7.05743
7.54357
8.02568
8.47036
8.84185
9.1082
9.24863
9.25989
9.15902
8.9803
8.76626
8.55669
8.38127
4.21192
4.0489
3.95448
3.90494
3.88295
3.87748
3.88238
3.89499
3.91525
3.94516
3.98858
4.0511
4.14001
4.26406
4.43308
4.65718
4.9456
5.3052
5.73839
6.24149
6.79897
7.38241
7.95154
8.45816
8.85356
9.09871
9.17522
9.09314
8.8911
8.62622
8.35674
8.12703
3.66345
3.49308
3.39193
3.33393
3.30014
3.27845
3.26187
3.24704
3.23321
3.22179
3.21631
3.22253
3.24866
3.30545
3.40598
3.565
3.79756
4.11699
4.53673
5.06485
5.69213
6.39144
7.1169
7.8067
8.39078
8.80386
9.00209
8.97866
8.77114
8.45307
8.10934
7.80786
3.01061
2.83411
2.72588
2.65775
2.60922
2.56699
2.52306
2.47298
2.41485
2.34898
2.27803
2.20741
2.14592
2.10621
2.105
2.16253
2.30123
2.54294
2.91122
3.43546
4.11811
4.93801
5.84712
6.77078
7.61439
8.27806
8.67928
8.77926
8.60284
8.238
7.80568
7.41095
2.25139
2.06998
1.95426
1.87424
1.8079
1.74066
1.66317
1.5695
1.45607
1.32144
1.16669
0.99621
0.818824
0.648798
0.506565
0.418649
0.416386
0.533067
0.799996
1.27401
1.97997
2.90892
4.01651
5.21927
6.39777
7.41075
8.12248
8.44153
8.35989
7.97039
7.43797
6.92439
1.38599
1.20085
1.07732
0.983901
0.897104
0.800872
0.684205
0.539194
0.359983
0.142662
-0.11408
-0.407694
-0.730135
-1.06613
-1.39175
-1.67392
-1.87132
-1.93757
-1.82718
-1.46696
-0.790197
0.214074
1.51372
3.02427
4.60612
6.07412
7.22618
7.8937
8.00573
7.63809
7.00161
6.33973
0.416849
0.228998
0.0976379
-0.00994801
-0.118719
-0.246433
-0.406118
-0.60815
-0.861288
-1.17266
-1.54682
-1.984
-2.47792
-3.01318
-3.56307
-4.08816
-4.53661
-4.84717
-4.95557
-4.78206
-4.20715
-3.1869
-1.73086
0.0874429
2.11898
4.13951
5.87301
7.04903
7.49426
7.22918
6.49894
5.65627
-0.651709
-0.84154
-0.980228
-1.1014
-1.2316
-1.39059
-1.59386
-1.85475
-2.18554
-2.59725
-3.09848
-3.69323
-4.378
-5.13845
-5.94619
-6.75633
-7.50693
-8.12126
-8.51406
-8.59639
-8.21079
-7.25844
-5.71513
-3.62836
-1.13928
1.50329
3.95218
5.81614
6.77479
6.73604
5.94539
4.888
-1.81416
-2.00575
-2.15045
-2.28259
-2.43052
-2.61651
-2.85905
-3.17498
-3.58058
-4.09139
-4.72072
-5.4771
-6.36085
-7.35988
-8.44556
-9.56916
-10.6601
-11.6271
-12.3641
-12.7611
-12.6529
-11.8704
-10.3403
-8.06853
-5.1658
-1.88044
1.38677
4.11806
5.80341
6.16359
5.37925
4.0744
-3.06496
-3.25888
-3.40718
-3.54473
-3.70234
-3.90555
-4.17657
-4.53635
-5.00566
-5.60491
-6.35251
-7.26207
-8.33843
-9.57285
-10.938
-12.3831
-13.8315
-15.18
-16.3036
-17.0662
-17.3026
-16.795
-15.3997
-13.0665
-9.85086
-5.96637
-1.83308
1.91963
4.56238
5.54379
4.87701
3.29777
-4.40027
-4.59828
-4.7462
-4.87971
-5.03316
-5.23678
-5.51764
-5.9015
-6.41404
-7.08069
-7.92504
-8.96582
-10.2127
-11.6608
-13.2855
-15.0362
-16.8326
-18.5635
-20.0891
-21.2498
-21.8714
-21.724
-20.5889
-18.343
-14.9644
-10.593
-5.618
-0.739812
3.08797
4.95881
4.57744
2.71104
-5.82033
-6.02583
-6.16724
-6.28189
-6.40994
-6.58862
-6.85163
-7.23059
-7.75642
-8.45949
-9.36814
-10.5058
-11.8864
-13.5095
-15.3533
-17.3692
-19.4765
-21.5599
-23.4706
-25.0327
-26.0545
-26.3098
-25.5406
-23.5312
-20.1666
-15.4759
-9.757
-3.71433
1.50484
4.57462
4.71869
2.58241
-7.33284
-7.55136
-7.67678
-7.75032
-7.8221
-7.94031
-8.14797
-8.48394
-8.98471
-9.68508
-10.6173
-11.8081
-13.2752
-15.0212
-17.0277
-19.2488
-21.6058
-23.9832
-26.2295
-28.1603
-29.5681
-30.2275
-29.8797
-28.2267
-25.0457
-20.2265
-13.9142
-6.72848
0.0618851
4.68476
5.69227
3.3637
-8.95799
-9.19762
-9.2918
-9.29102
-9.26294
-9.27308
-9.37766
-9.62446
-10.0555
-10.7092
-11.6199
-12.8163
-14.3174
-16.128
-18.2322
-20.587
-23.1171
-25.7102
-28.2165
-30.4508
-32.199
-33.2297
-33.2904
-32.0542
-29.1777
-24.3966
-17.6496
-9.3716
-0.838324
5.75973
8.11492
5.78769
-10.7369
-11.0079
-11.0449
-10.9194
-10.7305
-10.5706
-10.5141
-10.6194
-10.9332
-11.4956
-12.341
-13.4977
-14.9848
-16.8069
-18.9488
-21.369
-23.9947
-26.7173
-29.3923
-31.8396
-33.8483
-35.1808
-35.581
-34.7318
-32.1939
-27.538
-20.4605
-11.1128
-0.625246
8.49239
12.9127
10.9947
-12.7469
-13.0592
-12.9913
-12.6627
-12.2271
-11.8178
-11.5329
-11.4409
-11.5915
-12.023
-12.767
-13.849
-15.2852
-17.0781
-19.2111
-21.6422
-24.2996
-27.0776
-29.836
-32.401
-34.5685
-36.1047
-36.7375
-36.1338
-33.8334
-29.258
-21.8296
-11.3309
1.43392
13.8254
21.4029
20.6823
-15.1331
-15.4856
-15.2199
-14.5605
-13.7561
-12.9976
-12.4089
-12.0651
-12.0124
-12.2824
-12.8999
-13.8841
-15.2459
-16.9836
-19.0771
-21.4825
-24.1272
-26.9064
-29.6822
-32.2847
-34.5133
-36.1376
-36.8807
-36.3575
-34.0601
-29.2782
-21.2583
-9.34429
6.21192
22.946
35.3519
37.2698
-18.1762
-18.5215
-17.8651
-16.6599
-15.3108
-14.08
-13.1086
-12.4653
-12.1813
-12.2731
-12.7535
-13.6319
-14.9115
-16.5842
-18.6251
-20.9868
-23.5943
-26.3418
-29.0909
-31.6706
-33.8781
-35.4767
-36.1857
-35.5662
-32.9994
-27.6281
-18.4263
-4.43193
14.6914
37.2342
56.977
64.0705
-22.452
-22.5783
-21.111
-18.9866
-16.8421
-14.9947
-13.5687
-12.5964
-12.0731
-11.99
-12.3416
-13.1237
-14.3298
-15.944
-17.9355
-20.2521
-22.8152
-25.5157
-28.212
-30.7274
-32.849
-34.3222
-34.8394
-33.9221
-30.7774
-24.3556
-13.3073
3.79692
27.9152
58.144
88.8333
105.477
-29.2256
-28.3487
-25.1228
-21.4368
-18.1642
-15.5613
-13.6444
-12.3513
-11.6147
-11.3887
-11.6441
-12.3609
-13.521
-15.1
-17.0603
-19.3442
-21.8684
-24.5195
-27.1495
-29.5723
-31.5577
-32.8206
-33.0028
-31.5714
-27.517
-19.5342
-5.90916
15.3516
46.1443
86.9772
133.438
167.146
-41.4569
-36.7299
-29.6515
-23.4257
-18.7174
-15.3302
-12.976
-11.4447
-10.5875
-10.3082
-10.5476
-11.2678
-12.4392
-14.0296
-15.9952
-18.2734
-20.7764
-23.3858
-25.9463
-28.2594
-30.0727
-31.0616
-30.7989
-28.6494
-23.3891
-13.4351
3.3208
29.5606
68.5117
123.309
193.141
255.946
-66.0195
-47.1905
-32.5166
-22.9383
-16.9108
-13.1044
-10.7105
-9.28238
-8.57478
-8.4521
-8.83884
-9.69011
-10.9728
-12.6527
-14.6845
-17.004
-19.5215
-22.1151
-24.6237
-26.8367
-28.4789
-29.1837
-28.4481
-25.4857
-18.9419
-7.02879
12.7135
43.7159
91.0158
162.611
270.079
400.506
-125.569
-50.4021
-24.6494
-14.5456
-9.83024
-7.34719
-6.00582
-5.37987
-5.28492
-5.63653
-6.39523
-7.54062
-9.0563
-10.9195
-13.0932
-15.5191
-18.1113
-20.7502
-23.274
-25.4673
-27.0421
-27.6043
-26.5924
-23.1287
-15.8676
-2.94576
18.2663
51.6695
103.814
188.396
341.936
659.38
VECTORS velocity double
5.35987e-05 -5.35987e-05 0
6.16736e-05 4.55238e-05 0
-0.000160398 0.000176548 0
-0.000619674 0.000282728 0
-0.00125754 0.000355136 0
-0.00201315 0.000400473 0
-0.0028412 0.000427579 0
-0.00371139 0.000442608 0
-0.00460207 0.000448081 0
-0.00549367 0.000443515 0
-0.00636368 0.000426499 0
-0.00718396 0.000393773 0
-0.00791987 0.000342143 0
-0.00853128 0.000269269 0
-0.00897488 0.000174328 0
-0.0092078 5.85913e-05 0
-0.00919208 -7.43097e-05 0
-0.00889965 -0.000218125 0
-0.00831848 -0.00036304 0
-0.00745879 -0.000496648 0
-0.00635702 -0.000605127 0
-0.0050769 -0.000674997 0
-0.00370652 -0.000695375 0
-0.00235082 -0.000660333 0
-0.00111967 -0.000570813 0
-0.000113345 -0.000435513 0
0.000592625 -0.000270457 0
0.000960216 -9.71335e-05 0
0.000998082 5.92671e-05 0
0.00076945 0.000169365 0
0.000402772 0.000197313 0
0.00010273 0.00010273 0
-4.95315e-05 -5.7666e-05 0
-0.000407496 0.000399481 0
-0.00130082 0.000937989 0
-0.00269986 0.00137959 0
-0.00449414 0.00169042 0
-0.00656392 0.00189058 0
-0.00880852 0.00201013 0
-0.0111492 0.00207097 0
-0.0135211 0.00208228 0
-0.0158624 0.00204222 0
-0.0181064 0.0019418 0
-0.0201767 0.00176908 0
-0.0219869 0.00151288 0
-0.0234428 0.00116589 0
-0.0244488 0.000727314 0
-0.0249153 0.000204933 0
-0.024768 -0.000383628 0
-0.0239593 -0.0010099 0
-0.0224784 -0.00163337 0
-0.0203602 -0.00220423 0
-0.0176919 -0.00266765 0
-0.0146141 -0.00297035 0
-0.0113156 -0.00306887 0
-0.00801971 -0.00293848 0
-0.00496258 -0.00258094 0
-0.00236543 -0.00202886 0
-0.000403195 -0.00134532 0
0.000825414 -0.000618474 0
0.00132219 4.59636e-05 0
0.00120432 0.000529174 0
0.000710267 0.00069823 0
0.000203331 0.00040879 0
-0.000213484 0.000205349 0
-0.00107929 0.00136024 0
-0.00277217 0.00256344 0
-0.00515928 0.00354029 0
-0.00807247 0.00423721 0
-0.0113508 0.00469193 0
-0.014858 0.00496057 0
-0.0184811 0.00508433 0
-0.0221206 0.00508024 0
-0.025679 0.00494397 0
-0.0290526 0.00465763 0
-0.0321273 0.00419835 0
-0.0347795 0.00354597 0
-0.0368803 0.00268954 0
-0.0383032 0.00163257 0
-0.0389341 0.000397007 0
-0.0386831 -0.000974023 0
-0.0374962 -0.002415 0
-0.0353667 -0.00383875 0
-0.0323439 -0.00513985 0
-0.0285414 -0.00620282 0
-0.0241397 -0.00691467 0
-0.0193815 -0.00718117 0
-0.0145587 -0.00694498 0
-0.00998753 -0.00620271 0
-0.00597511 -0.00501665 0
-0.00277765 -0.00351723 0
-0.000558121 -0.0018947 0
0.000649965 -0.000382678 0
0.000966858 0.000758796 0
0.000673068 0.00125645 0
0.000209228 0.00082135 0
-0.000389361 0.000808194 0
-0.00180295 0.00303679 0
-0.00434414 0.00512095 0
-0.00773996 0.00676571 0
-0.0117484 0.00793346 0
-0.0161684 0.00869401 0
-0.0208367 0.00913399 0
-0.0256168 0.00931413 0
-0.0303849 0.00925791 0
-0.0350173 0.00895709 0
-0.0393832 0.00838408 0
-0.043342 0.00750541 0
-0.0467446 0.00629377 0
-0.04944 0.00473782 0
-0.0512827 0.00284993 0
-0.052144 0.000671875 0
-0.0519229 -0.00172111 0
-0.0505571 -0.00422055 0
-0.0480328 -0.00668696 0
-0.0443956 -0.00895169 0
-0.0397606 -0.0108284 0
-0.0343201 -0.0121314 0
-0.0283426 -0.0127001 0
-0.0221632 -0.0124284 0
-0.0161604 -0.0112932 0
-0.01072 -0.00937904 0
-0.00618453 -0.00688774 0
-0.00279844 -0.0041298 0
-0.000656834 -0.00149726 0
0.000328387 0.000571262 0
0.000443187 0.00162297 0
0.000165638 0.00119622 0
-0.000562654 0.00176021 0
-0.00252226 0.00545797 0
-0.00591095 0.00862964 0
-0.0103035 0.0110454 0
-0.0153753 0.0127341 0
-0.0208837 0.0138218 0
-0.0266436 0.0144344 0
-0.0325028 0.0146531 0
-0.0383222 0.0145065 0
-0.0439621 0.0139809 0
-0.0492745 0.0130386 0
-0.0541011 0.0116363 0
-0.0582766 0.00974107 0
-0.0616342 0.00734346 0
-0.0640141 0.00446688 0
-0.0652725 0.00117469 0
-0.0652925 -0.00242508 0
-0.0639922 -0.00618262 0
-0.061334 -0.00990732 0
-0.057338 -0.0133647 0
-0.052098 -0.0162903 0
-0.0457951 -0.0184129 0
-0.0387036 -0.0194876 0
-0.031188 -0.019336 0
-0.0236846 -0.0178917 0
-0.0166645 -0.0152411 0
-0.0105766 -0.011649 0
-0.00577622 -0.007555 0
-0.00245381 -0.00353607 0
-0.000582445 -0.000246513 0
0.000103651 0.00163985 0
9.93422e-05 0.00146119 0
-0.000728856 0.00305172 0
-0.00321432 0.00861152 0
-0.00742071 0.0130712 0
-0.0127728 0.0163485 0
-0.0188637 0.0185936 0
-0.0254112 0.0200182 0
-0.0322125 0.0207992 0
-0.0391067 0.0210416 0
-0.0459479 0.0207785 0
-0.0525884 0.0199893 0
-0.0588713 0.0186254 0
-0.0646283 0.0166331 0
-0.0696822 0.0139737 0
-0.0738528 0.010639 0
-0.0769636 0.006662 0
-0.0788506 0.00212492 0
-0.0793702 -0.00283569 0
-0.0784072 -0.00803527 0
-0.0758823 -0.0132377 0
-0.0717701 -0.0181426 0
-0.0661221 -0.0224004 0
-0.0590874 -0.0256404 0
-0.0509285 -0.0275105 0
-0.042027 -0.0277302 0
-0.0328737 -0.0261542 0
-0.0240354 -0.0228371 0
-0.0160927 -0.0180837 0
-0.00955152 -0.0124619 0
-0.00474296 -0.00676017 0
-0.00174037 -0.00189638 0
-0.000321374 0.00118463 0
1.94066e-05 0.00157994 0
-0.000885433 0.00466601 0
-0.00386561 0.0124629 0
-0.00884101 0.0184016 0
-0.0150967 0.0226259 0
-0.0221505 0.0254608 0
-0.0296859 0.0272339 0
-0.0374882 0.0281871 0
-0.0453938 0.0284535 0
-0.0532567 0.0280706 0
-0.0609288 0.0270098 0
-0.0682501 0.0252092 0
-0.0750468 0.0226028 0
-0.0811318 0.019143 0
-0.08631 0.0148185 0
-0.0903833 0.00966666 0
-0.0931581 0.00378197 0
-0.0944531 -0.00267808 0
-0.0941071 -0.00950185 0
-0.0919859 -0.0164172 0
-0.0880019 -0.0230593 0
-0.0821457 -0.0289879 0
-0.0745153 -0.033718 0
-0.0653413 -0.0367657 0
-0.0550054 -0.0377124 0
-0.0440426 -0.036288 0
-0.0331186 -0.0324656 0
-0.0229688 -0.0265478 0
-0.014294 -0.0192137 0
-0.00762453 -0.0114863 0
-0.00318962 -0.00460773 0
-0.00084416 0.000131518 0
-7.5619e-05 0.00152373 0
-0.00102942 0.00658086 0
-0.00446306 0.0169618 0
-0.0101429 0.0245579 0
-0.01723 0.0298124 0
-0.0251775 0.0332756 0
-0.0336425 0.0354196 0
-0.0424042 0.0365654 0
-0.051302 0.0368787 0
-0.0601956 0.0364019 0
-0.0689416 0.0350964 0
-0.0773815 0.0328839 0
-0.0853381 0.0296812 0
-0.0926145 0.025426 0
-0.0989975 0.0200967 0
-0.104262 0.013726 0
-0.108176 0.00641164 0
-0.110511 -0.00167761 0
-0.111052 -0.0103075 0
-0.109602 -0.0191827 0
-0.106001 -0.0278787 0
-0.100164 -0.0358616 0
-0.0921187 -0.0425202 0
-0.0820409 -0.0472153 0
-0.0702866 -0.0493529 0
-0.0574126 -0.0484843 0
-0.0441716 -0.0444343 0
-0.031464 -0.0374365 0
-0.0202265 -0.0282373 0
-0.0112574 -0.0181013 0
-0.00501942 -0.00866568 0
-0.00149953 -0.00167588 0
-0.000192528 0.00125558 0
-0.00115683 0.00876711 0
-0.00499099 0.0220434 0
-0.0112943 0.0314596 0
-0.019123 0.0378264 0
-0.0278788 0.0419647 0
-0.0372003 0.044517 0
-0.0468662 0.0458956 0
-0.0567238 0.0463039 0
-0.0666428 0.0457892 0
-0.0764878 0.0443001 0
-0.086105 0.0417373 0
-0.0953146 0.037994 0
-0.10391 0.0329847 0
-0.111656 0.0266678 0
-0.118298 0.019061 0
-0.123562 0.0102545 0
-0.127166 0.000419022 0
-0.128838 -0.010192 0
-0.128316 -0.0212701 0
-0.125366 -0.0323424 0
-0.119817 -0.0427838 0
-0.111609 -0.0518514 0
-0.100837 -0.058734 0
-0.0877975 -0.0626277 0
-0.0730316 -0.0628495 0
-0.0573466 -0.0589952 0
-0.0417957 -0.0511341 0
-0.0275768 -0.0399961 0
-0.0158278 -0.0270605 0
-0.00734535 -0.0144269 0
-0.00233696 -0.00444292 0
-0.000342197 0.000720858 0
-0.00126271 0.0111867 0
-0.00543068 0.027626 0
-0.0122577 0.0390074 0
-0.020718 0.0465676 0
-0.0301751 0.0514363 0
-0.0402566 0.0544484 0
-0.0507452 0.0561187 0
-0.061499 0.0566923 0
-0.0724001 0.0562209 0
-0.083324 0.0546374 0
-0.0941226 0.0518158 0
-0.104615 0.047618 0
-0.114586 0.0419262 0
-0.123781 0.0346677 0
-0.131912 0.0258344 0
-0.138665 0.0154981 0
-0.143709 0.00382342 0
-0.14671 -0.00892348 0
-0.147351 -0.02242 0
-0.145327 -0.0361665 0
-0.140379 -0.0494571 0
-0.132343 -0.0614214 0
-0.121209 -0.0710702 0
-0.107173 -0.0773666 0
-0.0907079 -0.0793414 0
-0.0726214 -0.0762747 0
-0.0540778 -0.0679491 0
-0.0365327 -0.054945 0
-0.0215227 -0.0388705 0
-0.0102977 -0.0223244 0
-0.00341579 -0.0084357 0
-0.000537789 -0.000159128 0
-0.00134147 0.0137908 0
-0.00576132 0.0336096 0
-0.0129915 0.047081 0
-0.0219501 0.0559129 0
-0.0319752 0.0615732 0
-0.042689 0.0651069 0
-0.0538804 0.0671402 0
-0.0654194 0.0679635 0
-0.0772015 0.0676329 0
-0.0891142 0.0660619 0
-0.101017 0.0630927 0
-0.112731 0.0585481 0
-0.124033 0.0522688 0
-0.134655 0.0441414 0
-0.144284 0.0341212 0
-0.152572 0.0222524 0
-0.159144 0.00868467 0
-0.163614 -0.0063131 0
-0.165615 -0.0223891 0
-0.164786 -0.0390492 0
-0.160784 -0.0555257 0
-0.153334 -0.0708374 0
-0.142295 -0.0838272 0
-0.127723 -0.093218 0
-0.109961 -0.0977175 0
-0.0897396 -0.0962063 0
-0.0682605 -0.0880402 0
-0.0471934 -0.0734661 0
-0.028501 -0.0540518 0
-0.0140089 -0.0328603 0
-0.00480192 -0.0139887 0
-0.000794558 -0.00149148 0
-0.00138755 0.0165198 0
-0.00596208 0.039875 0
-0.0134538 0.0555376 0
-0.0227526 0.0657136 0
-0.0331828 0.0722277 0
-0.0443644 0.0763477 0
-0.0560922 0.0788186 0
-0.0682471 0.0799791 0
-0.0807374 0.0798899 0
-0.0934627 0.078443 0
-0.106292 0.0754441 0
-0.119053 0.0706714 0
-0.131522 0.0639166 0
-0.143424 0.0550175 0
-0.154435 0.0438847 0
-0.164184 0.0305259 0
-0.172268 0.0150678 0
-0.178267 -0.00222738 0
-0.181773 -0.0209682 0
-0.182382 -0.0406894 0
-0.179679 -0.0605919 0
-0.173284 -0.0796149 0
-0.16291 -0.0964627 0
-0.148431 -0.109634 0
-0.129995 -0.1175 0
-0.108167 -0.118474 0
-0.0840772 -0.111342 0
-0.0595193 -0.0957896 0
-0.0368592 -0.0730808 0
-0.018599 -0.0465837 0
-0.00656447 -0.0215068 0
-0.00112962 -0.00341565 0
-0.00139618 0.0193036 0
-0.00601495 0.0462846 0
-0.0136077 0.0642126 0
-0.0230651 0.0757948 0
-0.0337081 0.0832197 0
-0.0451551 0.0879843 0
-0.0572039 0.0909586 0
-0.0697431 0.0925332 0
-0.082692 0.0927749 0
-0.0959625 0.0915537 0
-0.109436 0.0886368 0
-0.122951 0.0837542 0
-0.136293 0.076645 0
-0.149195 0.0670934 0
-0.161336 0.0549595 0
-0.172344 0.0402083 0
-0.18181 0.0229357 0
-0.189297 0.00339067 0
-0.194368 -0.0180088 0
-0.196593 -0.0408155 0
-0.195516 -0.0642456 0
-0.190666 -0.0872059 0
-0.1816 -0.108311 0
-0.167985 -0.12588 0
-0.14971 -0.137964 0
-0.127074 -0.142474 0
-0.101007 -0.137498 0
-0.073287 -0.121911 0
-0.0465941 -0.0963123 0
-0.0241561 -0.0640504 0
-0.00877096 -0.0314597 0
-0.00156163 -0.0061069 0
-0.00136438 0.0220641 0
-0.00590816 0.0526865 0
-0.0134276 0.0729227 0
-0.0228438 0.0859583 0
-0.0334822 0.0943376 0
-0.044958 0.0997892 0
-0.0570676 0.103312 0
-0.0697023 0.105354 0
-0.0827892 0.10599 0
-0.0962521 0.105072 0
-0.109988 0.102328 0
-0.123853 0.0974423 0
-0.137654 0.0901002 0
-0.151145 0.0800319 0
-0.16403 0.0670457 0
-0.17596 0.05106 0
-0.186543 0.0321334 0
-0.195354 0.0104912 0
-0.20194 -0.0134529 0
-0.205868 -0.0392189 0
-0.206681 -0.0661049 0
-0.203836 -0.0930425 0
-0.196749 -0.118626 0
-0.184861 -0.141069 0
-0.167753 -0.158158 0
-0.14536 -0.167309 0
-0.118268 -0.165822 0
-0.0880593 -0.151515 0
-0.0575684 -0.123892 0
-0.0307151 -0.085762 0
-0.0114803 -0.0443679 0
-0.00210991 -0.00977845 0
-0.00129181 0.0247203 0
-0.00563954 0.0589219 0
-0.0129064 0.0814736 0
-0.0220714 0.0959886 0
-0.0324715 0.105346 0
-0.0437154 0.111501 0
-0.0555914 0.115586 0
-0.0679882 0.118111 0
-0.0808371 0.119168 0
-0.0940732 0.118593 0
-0.107612 0.116082 0
-0.121334 0.111275 0
-0.135077 0.103812 0
-0.148635 0.0933702 0
-0.161753 0.0797098 0
-0.17413 0.0627026 0
-0.185421 0.0423657 0
-0.195241 0.0188897 0
-0.203168 -0.00733908 0
-0.208789 -0.0357834 0
-0.211655 -0.0658611 0
-0.211194 -0.0965924 0
-0.206716 -0.126641 0
-0.197441 -0.154217 0
-0.182612 -0.176947 0
-0.161715 -0.19181 0
-0.134844 -0.195284 0
-0.103183 -0.183922 0
-0.0694889 -0.15567 0
-0.038237 -0.11209 0
-0.0147354 -0.0607767 0
-0.00279351 -0.0146819 0
-0.00118155 0.0271937 0
-0.00521939 0.0648341 0
-0.0120609 0.0896697 0
-0.0207671 0.105664 0
-0.0306911 0.115995 0
-0.0414315 0.122836 0
-0.0527621 0.127457 0
-0.0645628 0.130438 0
-0.0767656 0.131894 0
-0.0893164 0.131654 0
-0.102151 0.129394 0
-0.115182 0.124716 0
-0.128289 0.117221 0
-0.141315 0.106545 0
-0.154067 0.092405 0
-0.166314 0.0746311 0
-0.177786 0.0532002 0
-0.188175 0.0282632 0
-0.197129 0.000169585 0
-0.204277 -0.0305236 0
-0.209203 -0.0633286 0
-0.211366 -0.0974226 0
-0.210013 -0.131642 0
-0.204175 -0.164328 0
-0.19275 -0.19309 0
-0.17472 -0.214595 0
-0.149554 -0.224536 0
-0.117816 -0.218069 0
-0.0819032 -0.19113 0
-0.046596 -0.143188 0
-0.0185564 -0.0812195 0
-0.00363101 -0.0211064 0
-0.00104064 0.0294159 0
-0.00467262 0.0702817 0
-0.0109367 0.0973277 0
-0.018993 0.114768 0
-0.0282144 0.126035 0
-0.0381855 0.133507 0
-0.0486601 0.138591 0
-0.0595046 0.141949 0
-0.0706488 0.14373 0
-0.0820494 0.14377 0
-0.0936659 0.14173 0
-0.105446 0.137191 0
-0.117318 0.129725 0
-0.129188 0.118937 0
-0.140936 0.104513 0
-0.152418 0.0862524 0
-0.163465 0.064098 0
-0.173874 0.0381626 0
-0.1834 0.00875044 0
-0.191739 -0.0236179 0
-0.198557 -0.0584899 0
-0.203392 -0.0952634 0
-0.205491 -0.133055 0
-0.203756 -0.170489 0
-0.196768 -0.205343 0
-0.182982 -0.234159 0
-0.161142 -0.251979 0
-0.130982 -0.252523 0
-0.0942186 -0.229352 0
-0.0555763 -0.178916 0
-0.0229388 -0.106169 0
-0.00464168 -0.0293791 0
-0.000880205 0.0313367 0
-0.00403984 0.0751525 0
-0.00961059 0.104292 0
-0.016859 0.123109 0
-0.0251781 0.135235 0
-0.0341366 0.143237 0
-0.0434648 0.148664 0
-0.0530133 0.152269 0
-0.0627091 0.15425 0
-0.0725206 0.154462 0
-0.0824335 0.152567 0
-0.0924355 0.148136 0
-0.102508 0.140725 0
-0.112625 0.129923 0
-0.122746 0.115397 0
-0.132827 0.0969312 0
-0.142809 0.0744478 0
-0.152618 0.0480307 0
-0.162144 0.0179342 0
-0.1712 -0.0154065 0
-0.179564 -0.0515193 0
-0.1869 -0.0900629 0
-0.192529 -0.130527 0
-0.195304 -0.171977 0
-0.193568 -0.212578 0
-0.185276 -0.249 0
-0.168394 -0.275861 0
-0.141648 -0.285546 0
-0.105739 -0.269003 0
-0.0648818 -0.218765 0
-0.0278566 -0.135983 0
-0.00584927 -0.03987 0
-0.000715498 0.0329324 0
-0.00337789 0.0793788 0
-0.00819225 0.110451 0
-0.0145237 0.13053 0
-0.021783 0.143393 0
-0.0295224 0.151777 0
-0.0374495 0.157379 0
-0.0454007 0.161054 0
-0.0533029 0.163063 0
-0.0611394 0.163297 0
-0.0689256 0.161431 0
-0.0766926 0.157041 0
-0.084479 0.149679 0
-0.0923263 0.138932 0
-0.100279 0.124463 0
-0.108386 0.106053 0
-0.116702 0.0836237 0
-0.125285 0.057246 0
-0.134178 0.0271382 0
-0.143378 -0.00635376 0
-0.152804 -0.0427825 0
-0.162244 -0.0820237 0
-0.171178 -0.124003 0
-0.178528 -0.168377 0
-0.182513 -0.21393 0
-0.180686 -0.257766 0
-0.170248 -0.294416 0
-0.148802 -0.315183 0
-0.115712 -0.308365 0
-0.0741533 -0.261818 0
-0.0332719 -0.170836 0
-0.0072882 -0.0530075 0
-0.000565973 0.0342139 0
-0.00276044 0.0829542 0
-0.00682517 0.115754 0
-0.0121955 0.136928 0
-0.0182917 0.15035 0
-0.0246517 0.158919 0
-0.0309678 0.164481 0
-0.0370696 0.168005 0
-0.0428911 0.169835 0
-0.0484368 0.169907 0
-0.0537568 0.167927 0
-0.0589297 0.163485 0
-0.0640527 0.156145 0
-0.0692372 0.145498 0
-0.0746079 0.13122 0
-0.0803043 0.1131 0
-0.0864848 0.0910734 0
-0.093328 0.0652217 0
-0.101028 0.035755 0
-0.109761 0.00296388 0
-0.119614 -0.0328222 0
-0.130546 -0.0716117 0
-0.142249 -0.113777 0
-0.153829 -0.159674 0
-0.163547 -0.208929 0
-0.16872 -0.259421 0
-0.165896 -0.306022 0
-0.151524 -0.339395 0
-0.123366 -0.345402 0
-0.0829854 -0.30672 0
-0.0391454 -0.210656 0
-0.00901056 -0.0693063 0
-0.000455952 0.0352358 0
-0.00228022 0.085951 0
-0.00568968 0.120232 0
-0.0101331 0.142264 0
-0.0150244 0.156001 0
-0.0198945 0.164498 0
-0.024435 0.169758 0
-0.0284853 0.17288 0
-0.0319996 0.174296 0
-0.0350139 0.174006 0
-0.0376199 0.171754 0
-0.0399474 0.167159 0
-0.0421541 0.159801 0
-0.0444211 0.149293 0
-0.0469501 0.135325 0
-0.0499647 0.117706 0
-0.0537135 0.0963962 0
-0.0584743 0.0715029 0
-0.0645568 0.0432559 0
-0.0722849 0.0119247 0
-0.0819203 -0.0222949 0
-0.0936107 -0.0595162 0
-0.107281 -0.100499 0
-0.122327 -0.146328 0
-0.137249 -0.197634 0
-0.149379 -0.253413 0
-0.154842 -0.30939 0
-0.149029 -0.356211 0
-0.127933 -0.377841 0
-0.0909273 -0.351667 0
-0.0454371 -0.255038 0
-0.0110894 -0.0894063 0
-0.000416809 0.0361086 0
-0.00205535 0.088541 0
-0.00501057 0.124006 0
-0.00864987 0.146573 0
-0.0123563 0.160291 0
-0.0156683 0.16839 0
-0.0183047 0.173043 0
-0.0201415 0.175482 0
-0.0211742 0.176241 0
-0.0214846 0.175386 0
-0.0212144 0.17271 0
-0.0205481 0.167864 0
-0.019705 0.160459 0
-0.0189343 0.150131 0
-0.0185122 0.136593 0
-0.01874 0.11968 0
-0.0199441 0.0993753 0
-0.0224771 0.0758177 0
-0.0267213 0.0492678 0
-0.0330861 0.0200057 0
-0.0419743 -0.0118523 0
-0.0536917 -0.0465509 0
-0.0683707 -0.0851144 0
-0.0857585 -0.129279 0
-0.1048 -0.18072 0
-0.123161 -0.239837 0
-0.13691 -0.303755 0
-0.140659 -0.36391 0
-0.128619 -0.403279 0
-0.0974477 -0.394407 0
-0.0520827 -0.303154 0
-0.0136126 -0.114108 0
-0.000492271 0.0370177 0
-0.00224361 0.0910218 0
-0.00507333 0.12731 0
-0.0081226 0.149957 0
-0.0107142 0.163205 0
-0.0124233 0.170498 0
-0.0130415 0.17419 0
-0.012522 0.175652 0
-0.0109313 0.175513 0
-0.00841438 0.173908 0
-0.00517244 0.170676 0
-0.00144839 0.165507 0
0.00247624 0.158048 0
0.00628428 0.147964 0
0.00962893 0.134994 0
0.012138 0.118998 0
0.0134189 0.0999806 0
0.013065 0.0780995 0
0.0106615 0.0536336 0
0.00578482 0.0268813 0
-0.00201064 -0.00204427 0
-0.0131232 -0.033529 0
-0.0278313 -0.0687492 0
-0.0462121 -0.109876 0
-0.0678065 -0.159487 0
-0.0909661 -0.219548 0
-0.112194 -0.289067 0
-0.125825 -0.361217 0
-0.124525 -0.419312 0
-0.101844 -0.432225 0
-0.0589262 -0.353619 0
-0.0166595 -0.14438 0
-0.000749625 0.0382596 0
-0.00307039 0.0938521 0
-0.00625236 0.130492 0
-0.00900469 0.152577 0
-0.0105695 0.164741 0
-0.0106169 0.170718 0
-0.00908153 0.173053 0
-0.00605031 0.173239 0
-0.00169558 0.17198 0
0.00375825 0.169469 0
0.0100398 0.165591 0
0.0168358 0.160072 0
0.0238 0.152594 0
0.0305548 0.142855 0
0.036692 0.130621 0
0.0417791 0.115775 0
0.0453694 0.0983327 0
0.0470165 0.0784542 0
0.0462922 0.0564068 0
0.0428031 0.032474 0
0.0361986 0.00676291 0
0.0261483 -0.0211733 0
0.0123201 -0.0525686 0
-0.00566022 -0.0896953 0
-0.0279683 -0.135765 0
-0.0538878 -0.194191 0
-0.0809263 -0.266158 0
-0.103888 -0.347533 0
-0.114489 -0.423696 0
-0.103073 -0.461938 0
-0.0655881 -0.404309 0
-0.0202528 -0.181293 0
-0.00130149 0.0403107 0
-0.0048769 0.0976971 0
-0.0090496 0.134001 0
-0.011831 0.154601 0
-0.0124079 0.164859 0
-0.0106569 0.168896 0
-0.00675793 0.16944 0
-0.00100024 0.168063 0
0.00629941 0.165502 0
0.0148081 0.161985 0
0.0241724 0.157429 0
0.0340197 0.151591 0
0.0439515 0.14418 0
0.0535419 0.134924 0
0.0623379 0.123619 0
0.0698675 0.110161 0
0.0756539 0.0945701 0
0.0792364 0.0769871 0
0.0801967 0.0576379 0
0.0781823 0.0367464 0
0.0729141 0.0143633 0
0.0641329 -0.0099421 0
0.0515448 -0.0373835 0
0.0348059 -0.0701612 0
0.0134784 -0.111664 0
-0.0128356 -0.166059 0
-0.0432653 -0.236822 0
-0.0739949 -0.323178 0
-0.0968795 -0.414565 0
-0.099478 -0.479886 0
-0.0712374 -0.452086 0
-0.0242713 -0.225817 0
-0.00234455 0.0439567 0
-0.0081904 0.103472 0
-0.0141198 0.138328 0
-0.0171676 0.156103 0
-0.0166149 0.163381 0
-0.0127447 0.164753 0
-0.00612312 0.163063 0
0.00268236 0.159877 0
0.0131673 0.155904 0
0.0248785 0.151363 0
0.0373925 0.146172 0
0.0502908 0.140102 0
0.0631421 0.132885 0
0.0754948 0.124276 0
0.0868769 0.114089 0
0.0968057 0.102232 0
0.104804 0.0887141 0
0.110425 0.07364 0
0.113277 0.0571721 0
0.113053 0.0394511 0
0.109525 0.0204549 0
0.102501 -0.000229108 0
0.0917156 -0.0237229 0
0.0767838 -0.0521512 0
0.0571575 -0.0887201 0
0.0321148 -0.137646 0
0.00103457 -0.203725 0
-0.034887 -0.289624 0
-0.0693403 -0.390782 0
-0.0884118 -0.482 0
-0.0742225 -0.492402 0
-0.0283005 -0.278389 0
-0.0042186 0.0505199 0
-0.0137858 0.112322 0
-0.0221825 0.143805 0
-0.025355 0.156847 0
-0.0230948 0.159824 0
-0.0164178 0.157763 0
-0.00644409 0.153458 0
0.00591365 0.148319 0
0.0199519 0.142939 0
0.0351128 0.137456 0
0.0509271 0.131751 0
0.0669585 0.125594 0
0.0827724 0.118729 0
0.0979225 0.110929 0
0.11195 0.102025 0
0.124394 0.0919231 0
0.134807 0.0806119 0
0.142778 0.0681498 0
0.14796 0.0546276 0
0.150082 0.040099 0
0.148946 0.0244702 0
0.144393 0.00733216 0
0.136189 -0.0122946 0
0.123899 -0.0363578 0
0.106807 -0.0677951 0
0.0838456 -0.110567 0
0.0536552 -0.169533 0
0.0153548 -0.249593 0
-0.0285559 -0.352448 0
-0.065738 -0.464079 0
-0.0714792 -0.51877 0
-0.0313663 -0.338056 0
-0.00745779 0.0621963 0
-0.0225722 0.125327 0
-0.0334671 0.150091 0
-0.0355763 0.155842 0
-0.0300935 0.153086 0
-0.0192174 0.146948 0
-0.00476308 0.139845 0
0.0120023 0.132809 0
0.0302203 0.126192 0
0.0492871 0.119975 0
0.0687374 0.113968 0
0.0881609 0.107922 0
0.10716 0.101588 0
0.12533 0.0947499 0
0.142262 0.0872454 0
0.157546 0.0789751 0
0.170791 0.0699019 0
0.181643 0.0600364 0
0.189799 0.0494032 0
0.195018 0.0379834 0
0.19711 0.0256284 0
0.195902 0.0119356 0
0.191148 -0.00394059 0
0.182358 -0.0236316 0
0.168629 -0.0497003 0
0.148521 -0.0855914 0
0.119977 -0.135775 0
0.0807018 -0.205776 0
0.0299122 -0.301565 0
-0.0252702 -0.422598 0
-0.0575646 -0.522216 0
-0.0314328 -0.400855 0
-0.0126383 0.0822923 0
-0.0345903 0.142298 0
-0.045494 0.154919 0
-0.0428216 0.150451 0
-0.0307042 0.140877 0
-0.0129384 0.130515 0
0.00800646 0.120878 0
0.0306513 0.112365 0
0.0541306 0.104939 0
0.077915 0.0983772 0
0.101627 0.092404 0
0.124944 0.0867451 0
0.147556 0.0811536 0
0.169146 0.0754238 0
0.189387 0.0693989 0
0.207952 0.0629729 0
0.224524 0.0560865 0
0.238812 0.0487117 0
0.25056 0.0408243 0
0.259544 0.0323593 0
0.26556 0.0231446 0
0.26838 0.0128072 0
0.267685 0.000635974 0
0.262905 -0.014638 0
0.252961 -0.0350211 0
0.236027 -0.0632278 0
0.209405 -0.102973 0
0.169625 -0.159524 0