# vtk DataFile Version 2.0
Lid-driven cavity
ASCII
DATASET STRUCTURED_POINTS
DIMENSIONS 32 32 1
ORIGIN 0.015625 0.015625 0
SPACING 0.03125 0.03125 1
POINT_DATA 1024
SCALARS pressure double 1
LOOKUP_TABLE default
20.2745
20.1765
20.0205
19.8619
19.7319
19.6453
19.6084
19.625
19.6997
19.8379
20.0462
20.3307
20.695
21.1391
21.6572
22.2368
22.8578
23.4934
24.1094
24.6671
25.1279
25.459
25.6385
25.6601
25.5355
25.2935
24.9761
24.6326
24.3139
24.0664
23.9262
23.9067
20.3725
20.2708
20.1432
20.0204
19.922
19.8586
19.8362
19.8593
19.9327
20.0621
20.2537
20.5131
20.8439
21.2464
21.7156
22.2407
22.8035
23.3807
23.9409
24.449
24.8698
25.1735
25.3408
25.3669
25.2637
25.0586
24.7899
24.5006
24.2333
24.0247
23.9033
23.8872
20.5336
20.3903
20.2583
20.1484
20.0669
20.0174
20.0023
20.0248
20.0893
20.202
20.3694
20.5982
20.8933
21.2566
21.6853
22.1706
22.697
23.2424
23.7768
24.2655
24.6731
24.9693
25.134
25.162
25.065
24.8704
24.6162
24.3441
24.0928
23.8943
23.7733
23.7489
20.6955
20.4951
20.3414
20.2288
20.1517
20.1053
20.0876
20.0996
20.1453
20.2312
20.3652
20.5559
20.8106
21.1342
21.5269
21.9832
22.4895
23.0244
23.5577
24.0534
24.4736
24.7845
24.9625
24.9993
24.9053
24.7077
24.4461
24.1637
23.9002
23.6863
23.5451
23.4944
20.8042
20.5423
20.3591
20.2343
20.1508
20.0963
20.0642
20.0535
20.0677
20.114
20.2026
20.3445
20.5507
20.8298
21.1863
21.6182
22.1154
22.6559
23.2096
23.7381
24.1993
24.5534
24.7698
24.8343
24.7528
24.5513
24.271
23.9594
23.6602
23.4077
23.2262
23.1336
20.8109
20.4886
20.2732
20.1298
20.0305
19.9564
19.8967
19.8488
19.8159
19.8069
19.8341
19.9121
20.0563
20.28
20.5927
20.9976
21.489
22.0457
22.6382
23.226
23.7614
24.196
24.4888
24.6147
24.5709
24.3787
24.0799
23.7273
23.3733
23.0604
22.8188
22.67
20.6691
20.2899
20.0418
19.8752
19.7516
19.6458
19.5438
19.4417
19.3432
19.2586
19.2033
19.1961
19.257
19.4055
19.6574
20.0222
20.5007
21.0759
21.7212
22.3948
23.0429
23.6063
24.0291
24.2694
24.3087
24.1575
23.8548
23.4591
23.0353
22.6405
22.3178
22.0981
20.3334
19.9022
19.6222
19.4281
19.2713
19.1208
18.96
18.784
18.5971
18.4116
18.2458
18.1232
18.0696
18.1115
18.2726
18.5708
19.0152
19.5992
20.3029
21.0859
21.889
22.6404
23.2646
23.6954
23.8892
23.8362
23.565
23.138
22.6359
22.1392
21.7129
21.4028
19.7608
19.2837
18.9725
18.7461
18.5463
18.3367
18.0982
17.8251
17.5223
17.2037
16.8911
16.6126
16.4009
16.2905
16.3151
16.5033
16.8753
17.4408
18.1947
19.1023
20.1017
21.1081
22.0224
22.7458
23.1976
23.3335
23.1597
22.735
22.158
21.5416
20.9857
20.5615
18.9123
18.3964
18.0543
17.79
17.536
17.2509
16.9131
16.5158
16.0642
15.5735
15.0685
14.5823
14.1547
13.8304
13.655
13.6712
13.9132
14.4098
15.1854
16.2171
17.4453
18.7744
20.0797
21.2224
22.0709
22.5284
22.5589
22.2034
21.5747
20.8278
20.1141
19.5455
17.7556
17.2088
16.8359
16.527
16.2061
15.8272
15.3659
14.8139
14.1756
13.467
12.7154
11.9586
11.2445
10.6289
10.1722
9.93475
9.97019
10.3218
11.063
12.1937
13.664
15.373
17.1723
18.8778
20.2947
21.2521
21.6453
21.4724
20.8473
19.9724
19.0726
18.3226
16.2681
15.6993
15.2953
14.9343
14.533
14.0407
13.4301
12.6903
11.8242
10.8474
9.78873
8.69051
7.60876
6.61179
5.77713
5.18618
4.91645
5.03181
5.64983
6.82166
8.51648
10.6374
13.0185
15.4321
17.6107
19.2885
20.2594
20.4416
19.9219
18.946
17.8352
16.86
14.4397
13.8584
13.4229
13.0024
12.5072
11.8823
11.0967
10.1365
9.00149
7.70569
6.27822
4.76515
3.23049
1.75578
0.437481
-0.618752
-1.30721
-1.53513
-1.15728
-0.0376081
1.82385
4.34748
7.36294
10.6074
13.7408
16.3863
18.2025
18.9789
18.7275
17.7155
16.379
15.129
12.2746
11.6906
11.2242
10.7378
10.137
9.36286
8.38031
7.17102
5.7308
4.07038
2.21794
0.22203
-1.84603
-3.89142
-5.79777
-7.43279
-8.65837
-9.3456
-9.34092
-8.40009
-6.47486
-3.61178
0.0331492
4.18061
8.42961
12.2887
15.2519
16.9249
17.1772
16.2472
14.6901
13.1116
9.7921
9.21564
8.71995
8.16417
7.45044
6.51614
5.32183
3.8439
2.07273
0.0144247
-2.30536
-4.83704
-7.50321
-10.1967
-12.7813
-15.0973
-16.9718
-18.2344
-18.7271
-18.1156
-16.2711
-13.1915
-8.996
-3.95263
1.50326
6.7794
11.1919
14.1102
15.1751
14.5128
12.772
10.81
7.02605
6.46693
5.94592
5.32187
4.49486
3.39892
1.98977
0.237771
-1.87325
-4.34318
-7.15039
-10.2459
-13.5478
-16.9382
-20.2628
-23.3355
-25.9492
-27.8924
-28.9733
-28.8459
-27.2553
-24.1358
-19.548
-13.715
-7.0656
-0.256629
5.86118
10.3845
12.633
12.5006
10.6583
8.26028
4.02228
3.48944
2.95006
2.26551
1.33486
0.0887847
-1.52227
-3.53472
-5.97226
-8.84188
-12.1273
-15.7817
-19.7206
-23.8174
-27.9022
-31.7657
-35.169
-37.8617
-39.6062
-40.0815
-38.9195
-35.9701
-31.2169
-24.8033
-17.1003
-8.77094
-0.78989
5.66123
9.49818
10.2337
8.43044
5.55107
0.834363
0.335088
-0.211982
-0.940639
-1.95245
-3.32069
-5.10103
-7.33753
-10.0623
-13.2903
-17.0116
-21.1828
-25.7184
-30.4858
-35.3024
-39.9394
-44.1318
-47.5945
-50.0467
-51.1896
-50.6006
-48.0345
-43.3826
-36.681
-28.1892
-18.5021
-8.64142
-0.0295898
5.7935
7.79822
6.24412
2.85081
-2.48202
-2.9431
-3.48293
-4.22875
-5.28362
-6.72661
-8.6213
-11.0208
-13.9663
-17.4817
-21.5638
-26.1733
-31.2253
-36.5827
-42.0539
-47.3955
-52.3221
-56.5225
-59.6816
-61.5007
-61.5665
-59.5629
-55.2765
-48.6204
-39.6985
-28.957
-17.3613
-6.48792
1.66715
5.38439
4.36629
0.447738
-5.87583
-6.29802
-6.81084
-7.53426
-8.57576
-10.0243
-11.9547
-14.4314
-17.5061
-21.2115
-25.5516
-30.4911
-35.9461
-41.7769
-47.7854
-53.718
-59.2758
-64.1304
-67.9454
-70.3998
-71.1315
-69.7971
-66.0903
-59.7957
-50.8357
-39.4375
-26.393
-13.3027
-2.55346
3.34023
3.23019
-1.18893
-9.30833
-9.69626
-10.1566
-10.8028
-11.7531
-13.1141
-14.978
-17.4239
-20.5156
-24.2947
-28.7713
-33.9135
-39.6381
-45.8034
-52.207
-58.5888
-64.6416
-70.0278
-74.4
-77.4218
-78.7672
-78.1114
-75.1067
-69.4094
-60.7582
-49.1142
-34.9855
-19.8361
-6.31246
2.23908
3.51423
-1.31544
-12.7616
-13.1269
-13.5014
-13.9959
-14.7521
-15.907
-17.5797
-19.8692
-22.8525
-26.5797
-31.0651
-36.2778
-42.1339
-48.49
-55.1405
-61.8218
-68.2227
-74.0016
-78.808
-82.3018
-84.1669
-84.1172
-81.8157
-76.8217
-68.7026
-57.1372
-42.2642
-25.2434
-8.79241
2.95515
6.25035
1.22426
-16.2495
-16.6119
-16.8545
-17.0961
-17.524
-18.3269
-19.6643
-21.6605
-24.407
-27.9597
-32.3338
-37.4982
-43.3654
-49.7876
-56.5551
-63.4009
-70.0122
-76.0477
-81.1585
-85.0078
-87.2805
-87.7074
-85.9868
-81.6455
-74.0984
-62.7531
-47.3289
-28.527
-8.90802
6.73625
12.9599
8.18812
-19.8339
-20.2213
-20.2617
-20.1089
-20.0348
-20.3111
-21.1542
-22.7208
-25.1158
-28.3964
-32.5733
-37.6073
-43.4028
-49.8038
-56.5944
-63.5034
-70.2164
-76.3933
-81.6884
-85.7696
-88.3276
-89.0742
-87.6954
-83.7724
-76.6285
-65.3882
-49.3468
-28.6116
-5.33275
15.2555
25.8041
22.1765
-23.6558
-24.0983
-23.8175
-23.0644
-22.2617
-21.807
-21.9918
-23.0029
-24.9517
-27.8888
-31.812
-36.667
-42.3442
-48.6759
-55.4369
-62.3507
-69.1002
-75.3452
-80.7412
-84.9571
-87.6833
-88.6178
-87.3786
-83.4843
-76.2284
-64.6638
-47.6016
-24.4093
3.44796
30.6197
47.7205
46.9132
-28.0005
-28.5071
-27.6838
-26.0166
-24.1858
-22.7635
-22.1265
-22.4763
-23.9161
-26.4753
-30.1273
-34.7939
-40.3456
-46.5988
-53.3172
-60.2168
-66.9769
-73.2545
-78.7016
-82.9799
-85.767
-86.7466
-85.4645
-81.2961
-73.4029
-60.5869
-41.484
-14.8411
19.077
55.3129
82.5033
87.5522
-33.4491
-33.9281
-32.1195
-29.0387
-25.7802
-23.1263
-21.5186
-21.1391
-22.0518
-24.2436
-27.6484
-32.1554
-37.6093
-43.8077
-50.5011
-57.3972
-64.1696
-70.4699
-75.9415
-80.2294
-82.9832
-83.8451
-82.3315
-77.5778
-68.5067
-53.592
-30.9521
1.18368
43.2805
92.0473
134.761
151.004
-41.2414
-41.2412
-37.5109
-32.1911
-26.9737
-22.8132
-20.1277
-19.0078
-19.4309
-21.3134
-24.5343
-28.9421
-34.3517
-40.54
-47.2436
-54.1615
-60.9603
-67.2841
-72.7624
-77.0152
-79.6488
-80.2351
-78.2622
-72.5821
-61.7536
-43.8131
-16.213
23.7424
77.7109
143.47
209.616
246.287
-54.1826
-52.0086
-44.2927
-35.3615
-27.5187
-21.6211
-17.8401
-16.0529
-16.0933
-17.7763
-20.9134
-25.3076
-30.7431
-36.9763
-43.7309
-50.6972
-57.5353
-63.8798
-69.3438
-73.516
-75.9475
-76.1218
-73.3998
-66.4405
-53.2659
-31.3707
2.59537
52.5434
122.046
211.692
311.806
384.871
-78.9197
-68.4319
-52.2276
-37.627
-26.5694
-18.9215
-14.208
-11.9849
-11.8698
-13.5509
-16.7655
-21.2725
-26.8296
-33.1773
-40.0303
-47.0734
-53.9617
-60.3218
-65.7491
-69.7976
-71.9555
-71.5977
-67.9071
-59.3077
-43.3154
-16.8352
24.373
85.7574
173.803
294.676
446.101
580.47
-130.789
-89.9045
-57.1972
-35.2222
-21.2251
-12.6557
-7.8813
-5.92722
-6.18898
-8.26159
-11.8423
-16.6731
-22.5051
-29.078
-36.1083
-43.2833
-50.2594
-56.659
-62.0634
-65.9946
-67.8785
-66.9774
-62.2785
-51.9107
-33.1486
-2.40418
45.3616
117.255
223.765
381.702
615.692
897.933
-258.544
-96.5092
-39.9069
-16.7333
-5.4999
0.274302
2.8289
3.09377
1.54318
-1.52586
-5.887
-11.3349
-17.6583
-24.6245
-31.9709
-39.4011
-46.5825
-53.1429
-58.6599
-62.6393
-64.4696
-63.3379
-58.0676
-46.7187
-26.5496
6.23429
57.0484
134.019
250.938
437.007
770.843
1457.71
VECTORS velocity double
8.08737e-05 -8.08737e-05 0
0.000161982 -2.35156e-07 0
2.28482e-05 0.000139369 0
-0.000382947 0.000266426 0
-0.00101303 0.000363659 0
-0.00181108 0.000434386 0
-0.00273164 0.000486179 0
-0.00374212 0.000524304 0
-0.00481654 0.000550113 0
-0.00592828 0.000561627 0
-0.00704472 0.000554814 0
-0.00812442 0.000524885 0
-0.00911671 0.000467408 0
-0.00996337 0.00037925 0
-0.010602 0.000259399 0
-0.0109711 0.000109676 0
-0.011016 -6.47791e-05 0
-0.0106957 -0.000255518 0
-0.00999145 -0.000448733 0
-0.00891578 -0.000626932 0
-0.00751811 -0.000770742 0
-0.00588588 -0.000861487 0
-0.00414001 -0.00088438 0
-0.00242378 -0.000831852 0
-0.000885717 -0.00070621 0
0.000341298 -0.000520806 0
0.00116143 -0.000299324 0
0.00153248 -7.17293e-05 0
0.00147679 0.000127425 0
0.00108956 0.0002598 0
0.000550703 0.000279055 0
0.000135824 0.000135824 0
-3.28187e-06 -0.000158466 0
-0.000257718 0.000250684 0
-0.00106693 0.0008368 0
-0.00246288 0.00137074 0
-0.00436335 0.0017899 0
-0.00665834 0.00210118 0
-0.00924647 0.00232807 0
-0.0120407 0.00248715 0
-0.0149606 0.00258151 0
-0.017921 0.00260244 0
-0.0208248 0.00253421 0
-0.0235587 0.00235913 0
-0.0259953 0.00206202 0
-0.0279978 0.00163384 0
-0.0294291 0.00107476 0
-0.0301623 0.000396587 0
-0.0300934 -0.000375696 0
-0.0291554 -0.00120287 0
-0.0273326 -0.00202845 0
-0.0246722 -0.00278324 0
-0.0212925 -0.00339183 0
-0.0173833 -0.00378183 0
-0.013198 -0.00389522 0
-0.00903478 -0.00370047 0
-0.0052073 -0.00320314 0
-0.00200629 -0.0024519 0
0.000343007 -0.00153765 0
0.00172274 -0.000584194 0
0.00215336 0.000264974 0
0.00180942 0.000853412 0
0.00102334 0.00101038 0
0.000285531 0.000557179 0
-0.000182351 2.71675e-05 0
-0.00100571 0.00114285 0
-0.00273387 0.00248201 0
-0.00528926 0.00367686 0
-0.00852761 0.00462259 0
-0.0122948 0.00533073 0
-0.0164495 0.00584127 0
-0.0208621 0.00618079 0
-0.0254049 0.00635057 0
-0.0299414 0.00633026 0
-0.0343189 0.00608769 0
-0.0383685 0.00558922 0
-0.0419089 0.00480889 0
-0.0447551 0.00373563 0
-0.0467297 0.00237892 0
-0.047677 0.000772856 0
-0.0474765 -0.0010213 0
-0.0460588 -0.002913 0
-0.0434178 -0.0047822 0
-0.0396224 -0.00648522 0
-0.0348253 -0.00786667 0
-0.029265 -0.0087765 0
-0.0232596 -0.00909128 0
-0.0171891 -0.00873812 0
-0.0114646 -0.00771743 0
-0.00648409 -0.00611914 0
-0.00257753 -0.00412627 0
5.00131e-05 -0.00200286 0
0.00136935 -6.63077e-05 0
0.00155847 0.0013395 0
0.00100458 0.00186428 0
0.000301478 0.00114419 0
-0.000397767 0.000607286 0
-0.00189761 0.00288594 0
-0.00468327 0.00525273 0
-0.00850726 0.00728552 0
-0.0131346 0.00887959 0
-0.0183613 0.0100677 0
-0.0240112 0.0109089 0
-0.0299217 0.0114363 0
-0.0359285 0.0116448 0
-0.0418551 0.011499 0
-0.0475083 0.0109497 0
-0.0526808 0.00994936 0
-0.057158 0.00846631 0
-0.0607283 0.0064947 0
-0.0631958 0.00406204 0
-0.064393 0.00123418 0
-0.0641942 -0.00188185 0
-0.0625268 -0.00513759 0
-0.0593814 -0.00834404 0
-0.0548242 -0.011276 0
-0.0490089 -0.0136884 0
-0.0421836 -0.0153404 0
-0.0346905 -0.016026 0
-0.0269537 -0.0156108 0
-0.0194527 -0.0140702 0
-0.0126775 -0.011522 0
-0.00706573 -0.00824172 0
-0.00292934 -0.00465134 0
-0.000385989 -0.00128051 0
0.000689988 0.0012886 0
0.000686283 0.00247278 0
0.000239699 0.00168537 0
-0.000626943 0.001632 0
-0.0028472 0.00558133 0
-0.00674913 0.00924493 0
-0.0118849 0.0122531 0
-0.0179112 0.0145655 0
-0.0245686 0.0162659 0
-0.0316492 0.0174412 0
-0.0389652 0.0181305 0
-0.0463269 0.0183191 0
-0.0535314 0.0179557 0
-0.0603603 0.0169751 0
-0.0665842 0.0153203 0
-0.0719706 0.012959 0
-0.076295 0.00989671 0
-0.0793515 0.00618411 0
-0.0809645 0.00192233 0
-0.0809985 -0.00273479 0
-0.0793652 -0.00758534 0
-0.0760313 -0.0123756 0
-0.071034 -0.0167989 0
-0.0644994 -0.0205154 0
-0.0566562 -0.0231819 0
-0.0478435 -0.0244903 0
-0.0385086 -0.0242182 0
-0.0291876 -0.0222848 0
-0.0204639 -0.0188063 0
-0.0129004 -0.0141328 0
-0.0069491 -0.00884794 0
-0.00285658 -0.00371978 0
-0.000590467 0.000385778 0
0.000194388 0.00259446 0
0.000139798 0.00206486 0
-0.000858534 0.00311747 0
-0.0038041 0.00926168 0
-0.0088217 0.0144841 0
-0.015254 0.0185821 0
-0.0226444 0.0216531 0
-0.0306783 0.0238695 0
-0.0391201 0.02536 0
-0.0477649 0.0261724 0
-0.0564084 0.0262824 0
-0.0648342 0.0256228 0
-0.0728123 0.024115 0
-0.0801033 0.0216952 0
-0.086467 0.0183342 0
-0.0916711 0.01405 0
-0.0955003 0.00891657 0
-0.0977648 0.00306736 0
-0.0983078 -0.00330278 0
-0.0970099 -0.00994858 0
-0.0937948 -0.0165614 0
-0.088649 -0.022756 0
-0.0816478 -0.0280941 0
-0.072977 -0.0321173 0
-0.0629509 -0.0343937 0
-0.0520214 -0.0345792 0
-0.0407709 -0.0324951 0
-0.0298798 -0.0282107 0
-0.0200575 -0.0221142 0
-0.0119367 -0.0149386 0
-0.00594528 -0.00771302 0
-0.00219301 -0.00163937 0
-0.000413547 0.00205529 0
2.02069e-05 0.00222487 0
-0.00108337 0.00505938 0
-0.00472798 0.01391 0
-0.0108124 0.0209379 0
-0.0184758 0.026224 0
-0.0271538 0.0300796 0
-0.036482 0.032805 0
-0.0462033 0.0345877 0
-0.0561034 0.0354896 0
-0.0659735 0.0354787 0
-0.0755947 0.0344735 0
-0.0847352 0.0323829 0
-0.0931543 0.0291375 0
-0.100608 0.0247098 0
-0.106858 0.0191279 0
-0.111673 0.0124829 0
-0.11484 0.00493296 0
-0.11617 -0.00329589 0
-0.115499 -0.0119244 0
-0.112696 -0.0206032 0
-0.107683 -0.0288732 0
-0.100466 -0.0361954 0
-0.0911669 -0.0419856 0
-0.0800533 -0.0456651 0
-0.0675581 -0.0467324 0
-0.0542917 -0.0448588 0
-0.0410243 -0.0400056 0
-0.0286264 -0.0325396 0
-0.0179526 -0.0233079 0
-0.00967551 -0.0136121 0
-0.00411454 -0.00505349 0
-0.00112838 0.000703792 0
-0.000115425 0.00212965 0
-0.00129177 0.00743452 0
-0.00557957 0.0194672 0
-0.0126392 0.0285246 0
-0.0214239 0.0350854 0
-0.0312744 0.0397468 0
-0.0417845 0.0429761 0
-0.0526832 0.0450366 0
-0.063754 0.0460117 0
-0.0747917 0.0458645 0
-0.0855829 0.0445002 0
-0.0959015 0.0418153 0
-0.10551 0.0377323 0
-0.114162 0.0322212 0
-0.121608 0.0253125 0
-0.1276 0.0171053 0
-0.131894 0.00777153 0
-0.134257 -0.00244241 0
-0.134477 -0.0132283 0
-0.132366 -0.024213 0
-0.127771 -0.034872 0
-0.120617 -0.0445673 0
-0.110946 -0.0525831 0
-0.0989514 -0.0581762 0
-0.0850159 -0.0606519 0
-0.0697456 -0.0594761 0
-0.0539765 -0.0544248 0
-0.0387371 -0.0457577 0
-0.0251348 -0.034366 0
-0.0141561 -0.0218097 0
-0.00641838 -0.0101547 0
-0.00197406 -0.00162549 0
-0.000271158 0.00174307 0
-0.00147327 0.0101996 0
-0.00631878 0.0258355 0
-0.0142218 0.037119 0
-0.0239775 0.0450314 0
-0.0348478 0.0505216 0
-0.0463946 0.0542582 0
-0.0583389 0.0565973 0
-0.0704685 0.0576513 0
-0.0825875 0.0573816 0
-0.0944937 0.0556806 0
-0.105971 0.0524305 0
-0.116787 0.047541 0
-0.126694 0.040972 0
-0.135432 0.0327469 0
-0.142731 0.0229617 0
-0.148313 0.0117907 0
-0.151903 -0.00050928 0
-0.15324 -0.0136032 0
-0.15208 -0.0271098 0
-0.148197 -0.0404531 0
-0.141432 -0.0529052 0
-0.131726 -0.0636217 0
-0.119173 -0.071686 0
-0.104067 -0.0761832 0
-0.0869635 -0.0763188 0
-0.0687178 -0.0715969 0
-0.0504868 -0.0620559 0
-0.0336398 -0.0485172 0
-0.0195397 -0.0327372 0
-0.00920854 -0.017296 0
-0.00299854 -0.0051385 0
-0.000458633 0.00101327 0
-0.00161711 0.0132899 0
-0.0069059 0.0328794 0
-0.0154831 0.0465553 0
-0.0260212 0.055889 0
-0.0377217 0.0622349 0
-0.0501228 0.0664928 0
-0.0629426 0.0691268 0
-0.0759768 0.0702856 0
-0.0890426 0.0699321 0
-0.101952 0.067946 0
-0.114502 0.0641919 0
-0.126468 0.0585609 0
-0.137603 0.0509942 0
-0.147637 0.041498 0
-0.156282 0.030154 0
-0.163231 0.0171291 0
-0.168171 0.00268219 0
-0.170797 -0.0128306 0
-0.170817 -0.0290237 0
-0.167945 -0.0452936 0
-0.161933 -0.0608416 0
-0.152615 -0.074709 0
-0.139956 -0.0858115 0
-0.124119 -0.0930001 0
-0.10555 -0.0951748 0
-0.0850571 -0.0914795 0
-0.0638659 -0.0815955 0
-0.0435806 -0.0661099 0
-0.0259808 -0.0468444 0
-0.012609 -0.0268916 0
-0.00426375 -0.0100982 0
-0.00069267 -0.000138029 0
-0.00171322 0.0166203 0
-0.0073043 0.040429 0
-0.0163523 0.0566309 0
-0.0274494 0.0674485 0
-0.0397543 0.0746808 0
-0.0527882 0.079482 0
-0.0662686 0.0824377 0
-0.0800003 0.0837406 0
-0.0938153 0.083358 0
-0.107542 0.0811567 0
-0.120992 0.0769807 0
-0.133951 0.0706968 0
-0.146178 0.0622199 0
-0.157401 0.0515301 0
-0.16732 0.0386863 0
-0.175613 0.0238383 0
-0.18194 0.00723961 0
-0.185957 -0.0107441 0
-0.18734 -0.029708 0
-0.185762 -0.0490591 0
-0.180894 -0.0679559 0
-0.172453 -0.0853534 0
-0.160257 -0.100022 0
-0.144298 -0.110586 0
-0.124845 -0.115611 0
-0.102575 -0.113805 0
-0.0786919 -0.104344 0
-0.054966 -0.0873722 0
-0.0335922 -0.0645558 0
-0.0167391 -0.0394051 0
-0.00583618 -0.016833 0
-0.0009899 -0.0018206 0
-0.0017533 0.0200868 0
-0.00748384 0.048284 0
-0.0167713 0.0671114 0
-0.0281737 0.0794675 0
-0.0408243 0.0876174 0
-0.0542313 0.0929863 0
-0.0681109 0.0962933 0
-0.0822764 0.0977822 0
-0.0965739 0.0974289 0
-0.110849 0.0950877 0
-0.12493 0.0905802 0
-0.138618 0.0837448 0
-0.151685 0.0744652 0
-0.163867 0.0626897 0
-0.174867 0.0484474 0
-0.184363 0.0318649 0
-0.192004 0.013181 0
-0.197431 -0.00724131 0
-0.2003 -0.0289588 0
-0.200258 -0.0514279 0
-0.196914 -0.0738003 0
-0.189876 -0.0949875 0
-0.178801 -0.113658 0
-0.163473 -0.128238 0
-0.143922 -0.136964 0
-0.120598 -0.138046 0
-0.0945666 -0.130019 0
-0.0676509 -0.112339 0
-0.0424046 -0.0862088 0
-0.0216907 -0.0553191 0
-0.00777892 -0.0257336 0
-0.00136733 -0.00417783 0
-0.00173194 0.023572 0
-0.00742453 0.0562219 0
-0.0167005 0.0777369 0
-0.0281322 0.0916759 0
-0.0408435 0.100771 0
-0.0543309 0.106727 0
-0.068307 0.110408 0
-0.0825901 0.112116 0
-0.0970389 0.111841 0
-0.111516 0.109428 0
-0.125869 0.104674 0
-0.139922 0.0973911 0
-0.153464 0.0874282 0
-0.166256 0.0747001 0
-0.178022 0.0592038 0
-0.188456 0.0410375 0
-0.197225 0.0204191 0
-0.203977 -0.00230014 0
-0.208367 -0.0266412 0
-0.21003 -0.0521242 0
-0.20854 -0.0779385 0
-0.203418 -0.103009 0
-0.194162 -0.125967 0
-0.18032 -0.145099 0
-0.161627 -0.158346 0
-0.138212 -0.163402 0
-0.110863 -0.158043 0
-0.0813076 -0.140787 0
-0.0523348 -0.11198 0
-0.0275089 -0.0750877 0
-0.0101456 -0.0372401 0
-0.00184168 -0.00738684 0
-0.00164762 0.0269516 0
-0.00711999 0.0640073 0
-0.016125 0.0882325 0
-0.0272982 0.103785 0
-0.0397689 0.113844 0
-0.0530218 0.120395 0
-0.0667611 0.124455 0
-0.0808058 0.126397 0
-0.0950246 0.126228 0
-0.109297 0.12379 0
-0.123492 0.118861 0
-0.137461 0.111225 0
-0.151024 0.100701 0
-0.163978 0.0871724 0
-0.176085 0.0706048 0
-0.187083 0.0510677 0
-0.196678 0.0287535 0
-0.204555 0.00399461 0
-0.210379 -0.0227215 0
-0.213804 -0.0509566 0
-0.214408 -0.0799919 0
-0.211651 -0.108835 0
-0.204887 -0.136161 0
-0.193425 -0.160209 0
-0.176661 -0.178694 0
-0.15431 -0.18882 0
-0.12675 -0.187533 0
-0.0954215 -0.172181 0
-0.0631689 -0.141811 0
-0.0341775 -0.0990741 0
-0.0129746 -0.0518199 0
-0.00242851 -0.011657 0
-0.0015035 0.0301027 0
-0.00658005 0.0714051 0
-0.0150603 0.09832 0
-0.0256888 0.115499 0
-0.0376144 0.126525 0
-0.0503095 0.133661 0
-0.0634642 0.138083 0
-0.0768934 0.140243 0
-0.0904725 0.14018 0
-0.104097 0.137735 0
-0.117662 0.132676 0
-0.131048 0.124764 0
-0.144117 0.113795 0
-0.156713 0.0996272 0
-0.168656 0.0822002 0
-0.179745 0.0615587 0
-0.189755 0.0378682 0
-0.198431 0.0114325 0
-0.205476 -0.0172895 0
-0.210589 -0.0478515 0
-0.213395 -0.0796871 0
-0.213333 -0.111959 0
-0.209646 -0.143486 0
-0.201419 -0.172573 0
-0.187686 -0.196826 0
-0.167684 -0.21304 0
-0.141242 -0.217316 0
-0.109314 -0.205654 0
-0.0745597 -0.175345 0
-0.0416091 -0.127482 0
-0.0162853 -0.0699388 0
-0.003142 -0.0172275 0
-0.00130769 0.0329139 0
-0.00583227 0.078195 0
-0.0135547 0.107733 0
-0.0233694 0.12653 0
-0.0344577 0.138509 0
-0.0462796 0.146195 0
-0.0585061 0.150931 0
-0.0709434 0.153262 0
-0.0834707 0.153267 0
-0.0959998 0.150801 0
-0.108452 0.145626 0
-0.120744 0.137492 0
-0.132786 0.126179 0
-0.144475 0.111529 0
-0.155701 0.0934671 0
-0.166341 0.0720209 0
-0.176259 0.0473334 0
-0.185289 0.0196739 0
-0.193223 -0.0105527 0
-0.199825 -0.0428726 0
-0.204786 -0.0768991 0
-0.207577 -0.112019 0
-0.20739 -0.1473 0
-0.203122 -0.181255 0
-0.193463 -0.211536 0
-0.177125 -0.234669 0
-0.153277 -0.245979 0
-0.122186 -0.24001 0
-0.0860422 -0.211888 0
-0.0496448 -0.160287 0
-0.0200764 -0.0920254 0
-0.00399558 -0.0243651 0
-0.0010732 0.0352948 0
-0.00492208 0.0841876 0
-0.0116913 0.116232 0
-0.0204559 0.13661 0
-0.0304429 0.149504 0
-0.0411005 0.157679 0
-0.052078 0.162651 0
-0.0631691 0.16507 0
-0.0742555 0.165073 0
-0.085266 0.162536 0
-0.0961505 0.157229 0
-0.106866 0.148898 0
-0.117372 0.13732 0
-0.127628 0.122333 0
-0.137596 0.103857 0
-0.14724 0.0819153 0
-0.156523 0.0566402 0
-0.165398 0.0282728 0
-0.173779 -0.00283756 0
-0.181526 -0.0362381 0
-0.188412 -0.0716871 0
-0.194001 -0.10885 0
-0.197503 -0.147154 0
-0.1977 -0.185472 0
-0.192983 -0.221697 0
-0.181544 -0.252285 0
-0.161811 -0.271944 0
-0.133179 -0.273767 0
-0.0970627 -0.250391 0
-0.0580612 -0.197183 0
-0.0243283 -0.118431 0
-0.0050041 -0.0333648 0
-0.000817394 0.0371854 0
-0.00391185 0.0892404 0
-0.0095865 0.123623 0
-0.0171143 0.145511 0
-0.0257787 0.159254 0
-0.0350199 0.167828 0
-0.0444653 0.172925 0
-0.0538956 0.175317 0
-0.0631959 0.175212 0
-0.0723141 0.172525 0
-0.0812322 0.167042 0
-0.0899509 0.158519 0
-0.0984826 0.146737 0
-0.10685 0.131539 0
-0.115087 0.112855 0
-0.123245 0.0907187 0
-0.131391 0.0652661 0
-0.139597 0.0367275 0
-0.147915 0.00540706 0
-0.156328 -0.0283232 0
-0.16473 -0.0643138 0
-0.172828 -0.102537 0
-0.179925 -0.142868 0
-0.184788 -0.184698 0
-0.185598 -0.226378 0
-0.180081 -0.264559 0
-0.165904 -0.293581 0
-0.141439 -0.305227 0
-0.107016 -0.28947 0
-0.0665853 -0.237536 0
-0.0290112 -0.149385 0
-0.00618833 -0.0445573 0
-0.000561354 0.0385641 0
-0.00287918 0.0932739 0
-0.00738839 0.129773 0
-0.0135577 0.153058 0
-0.0207338 0.167548 0
-0.0283558 0.176397 0
-0.0360335 0.181479 0
-0.0435387 0.183699 0
-0.0507639 0.183356 0
-0.0576806 0.180416 0
-0.064308 0.174696 0
-0.0706946 0.16597 0
-0.0769086 0.154032 0
-0.0830357 0.138738 0
-0.0891809 0.120038 0
-0.0954733 0.0979862 0
-0.10207 0.0727405 0
-0.109152 0.044541 0
-0.116903 0.0136641 0
-0.125449 -0.0196221 0
-0.134832 -0.0552293 0
-0.144931 -0.0934257 0
-0.155225 -0.134588 0
-0.164583 -0.178758 0
-0.171117 -0.224973 0
-0.172208 -0.270388 0
-0.164806 -0.309331 0
-0.146177 -0.332572 0
-0.11528 -0.327446 0
-0.074912 -0.280358 0
-0.034096 -0.184953 0
-0.0075816 -0.0583272 0
-0.000329283 0.0394548 0
-0.00191574 0.0962876 0
-0.00527507 0.134628 0
-0.0100433 0.159141 0
-0.0156306 0.174229 0
-0.021485 0.183193 0
-0.0272099 0.188086 0
-0.0325781 0.189965 0
-0.0374978 0.189235 0
-0.0419722 0.185928 0
-0.0460642 0.179904 0
-0.049875 0.17096 0
-0.0535321 0.158913 0
-0.0571851 0.143637 0
-0.0610052 0.125105 0
-0.0651894 0.103396 0
-0.069965 0.0787023 0
-0.0755938 0.0512901 0
-0.0823637 0.0214368 0
-0.0905463 -0.0106668 0
-0.100334 -0.0450143 0
-0.111773 -0.082103 0
-0.124585 -0.122804 0
-0.137871 -0.167897 0
-0.14986 -0.21731 0
-0.157779 -0.269041 0
-0.158007 -0.317852 0
-0.146708 -0.353979 0
-0.121243 -0.362401 0
-0.0827134 -0.324301 0
-0.0395638 -0.224976 0
-0.00923657 -0.0751453 0
-0.00014874 0.0399328 0
-0.00112809 0.0983754 0
-0.0034556 0.138227 0
-0.00687164 0.163726 0
-0.0108396 0.179199 0
-0.0148308 0.188068 0
-0.0184629 0.192567 0
-0.0215272 0.193916 0
-0.0239627 0.192639 0
-0.0258151 0.18885 0
-0.0271994 0.182458 0
-0.0282747 0.173292 0
-0.0292308 0.161194 0
-0.0302826 0.146061 0
-0.0316659 0.127885 0
-0.0336386 0.106773 0
-0.0364827 0.0829453 0
-0.0405103 0.0567035 0
-0.0460666 0.0283495 0
-0.0535171 -0.00194642 0
-0.0631718 -0.0342928 0
-0.0752329 -0.0693243 0
-0.0896805 -0.108323 0
-0.105964 -0.152808 0
-0.122637 -0.203738 0
-0.137045 -0.260287 0
-0.145252 -0.318171 0
-0.142457 -0.367753 0
-0.124292 -0.392257 0
-0.0896281 -0.367637 0
-0.0454036 -0.269014 0
-0.0112284 -0.0956103 0
-5.25924e-05 0.0401341 0
-0.000643329 0.0997441 0
-0.00217681 0.140719 0
-0.00438984 0.166863 0
-0.00677615 0.182416 0
-0.00885175 0.190917 0
-0.0102812 0.19478 0
-0.0109037 0.195391 0
-0.0107108 0.193407 0
-0.00980634 0.18903 0
-0.00836701 0.182223 0
-0.0066147 0.17285 0
-0.00480397 0.160782 0
-0.00321573 0.145937 0
-0.00214989 0.128327 0
-0.00192168 0.108076 0
-0.00285908 0.085424 0
-0.00530178 0.060695 0
-0.00960408 0.0342165 0
-0.0161404 0.00617348 0
-0.0252728 -0.0236256 0
-0.0373054 -0.0558978 0
-0.0524379 -0.0921695 0
-0.070527 -0.134589 0
-0.0906501 -0.185161 0
-0.110599 -0.244508 0
-0.126508 -0.309835 0
-0.13292 -0.372472 0
-0.123767 -0.414856 0
-0.0952129 -0.408256 0
-0.0515841 -0.316248 0
-0.0136481 -0.120487 0
-8.44771e-05 0.0402712 0
-0.000623911 0.100737 0
-0.00174037 0.142376 0
-0.00300213 0.168681 0
-0.00389946 0.183882 0
-0.00402785 0.191656 0
-0.00314953 0.194592 0
-0.00119429 0.194245 0
0.00176306 0.191403 0
0.00554046 0.186353 0
0.00988757 0.179114 0
0.0145097 0.169585 0
0.0190825 0.157663 0
0.0232622 0.143287 0
0.0266903 0.126482 0
0.0290027 0.10738 0
0.0298387 0.0862215 0
0.0288514 0.0633275 0
0.0257156 0.0390221 0
0.0201253 0.0134945 0
0.0117579 -0.0134469 0
0.000277016 -0.0425631 0
-0.0146629 -0.0754318 0
-0.0332777 -0.114623 0
-0.055285 -0.162997 0
-0.0792527 -0.222756 0
-0.101881 -0.29305 0
-0.117581 -0.367145 0
-0.118861 -0.428057 0
-0.0988391 -0.443631 0
-0.0579822 -0.365359 0
-0.0165797 -0.150714 0
-0.000310903 0.0406666 0
-0.00129819 0.101869 0
-0.00253487 0.143598 0
-0.0031869 0.169373 0
-0.0027095 0.18361 0
-0.000838432 0.190185 0
0.00249555 0.191851 0
0.00720606 0.190321 0
0.013082 0.186493 0
0.0198403 0.180727 0
0.0271502 0.173083 0
0.0346479 0.163496 0
0.0419477 0.15188 0
0.0486512 0.138188 0
0.0543542 0.122451 0
0.0586573 0.104796 0
0.0611803 0.0854466 0
0.0615781 0.064692 0
0.0595545 0.0428172 0
0.0548626 0.0199816 0
0.047276 -0.00398 0
0.0365544 -0.0298276 0
0.0224147 -0.0590878 0
0.00443867 -0.0943757 0
-0.01778 -0.139017 0
-0.0438212 -0.196726 0
-0.0714759 -0.268798 0
-0.0957822 -0.351391 0
-0.108452 -0.429861 0
-0.0995146 -0.470786 0
-0.0642481 -0.414327 0
-0.0200516 -0.187346 0
-0.000845234 0.0418227 0
-0.00301506 0.10387 0
-0.00508338 0.144902 0
-0.00551177 0.169149 0
-0.00372805 0.181572 0
0.000281193 0.186342 0
0.00629357 0.186347 0
0.0139819 0.183426 0
0.0229617 0.178533 0
0.0328288 0.172062 0
0.0431687 0.164098 0
0.0535568 0.154595 0
0.0635612 0.143476 0
0.0727478 0.130701 0
0.0806867 0.116295 0
0.086965 0.100369 0
0.0912028 0.0831121 0
0.0930713 0.0647601 0
0.0923084 0.0455356 0
0.0887212 0.0255423 0
0.0821619 0.00460525 0
0.0724553 -0.0179847 0
0.0593449 -0.0436805 0
0.0424459 -0.074908 0
0.0212541 -0.115075 0
-0.00478903 -0.168584 0
-0.0352052 -0.238868 0
-0.0665689 -0.32565 0
-0.0908985 -0.418602 0
-0.0956128 -0.486269 0
-0.0695762 -0.460148 0
-0.0239502 -0.231347 0
-0.00189067 0.0445586 0
-0.00632567 0.107738 0
-0.0100849 0.146861 0
-0.0106039 0.168138 0
-0.00741558 0.177611 0
-0.000960285 0.179839 0
0.00809151 0.177787 0
0.0190832 0.173306 0
0.031422 0.167334 0
0.0445754 0.16024 0
0.058054 0.152101 0
0.0713908 0.142867 0
0.084131 0.13246 0
0.0958304 0.120832 0
0.10606 0.107996 0
0.114419 0.0940317 0
0.120549 0.0790819 0
0.124153 0.0633184 0
0.125005 0.0468879 0
0.122956 0.0298261 0
0.117907 0.0119303 0
0.10974 -0.00743597 0
0.0982132 -0.0295924 0
0.0829187 -0.0568026 0
0.0632485 -0.0923181 0
0.0383611 -0.14041 0
0.00749684 -0.205762 0
-0.0285138 -0.291383 0
-0.0637919 -0.393262 0
-0.0844966 -0.48619 0
-0.072339 -0.498421 0
-0.0278708 -0.283168 0
-0.00380515 0.0502544 0
-0.0120599 0.114732 0
-0.018346 0.149912 0
-0.0189187 0.166178 0
-0.013822 0.171286 0
-0.00428076 0.170167 0
0.00841552 0.16571 0
0.0232104 0.159597 0
0.0392874 0.152628 0
0.0560036 0.145077 0
0.0728227 0.136967 0
0.0892664 0.128221 0
0.104888 0.118744 0
0.119264 0.108472 0
0.131997 0.0973935 0
0.14272 0.0855513 0
0.151119 0.0730338 0
0.156936 0.0599452 0
0.159987 0.0463579 0
0.16015 0.0322418 0
0.157348 0.0173658 0
0.151489 0.00115545 0
0.142333 -0.0175011 0
0.129423 -0.0406894 0
0.112014 -0.071352 0
0.0889532 -0.113428 0
0.0587852 -0.171711 0
0.0205116 -0.251149 0
-0.023743 -0.353963 0
-0.062036 -0.466491 0
-0.0694994 -0.522814 0
-0.030852 -0.341891 0
-0.00715562 0.0612152 0
-0.021219 0.12609 0
-0.0302393 0.153861 0
-0.0298353 0.162398 0
-0.0214529 0.161587 0
-0.00755066 0.156423 0
0.00982925 0.149378 0
0.0292288 0.141734 0
0.0496516 0.13399 0
0.0704033 0.126246 0
0.0909531 0.118429 0
0.110855 0.110413 0
0.129708 0.102076 0
0.147143 0.0933292 0
0.162817 0.0841307 0
0.176423 0.0744839 0
0.187701 0.0644247 0
0.196442 0.0539959 0
0.202491 0.0432076 0
0.205739 0.0319808 0
0.206097 0.0200711 0
0.203442 0.00696447 0
0.197554 -0.00826582 0
0.187923 -0.027384 0
0.173595 -0.0529204 0
0.153074 -0.088278 0
0.124256 -0.137876 0
0.0847955 -0.207251 0
0.0337686 -0.30258 0
-0.0220647 -0.423748 0
-0.0556495 -0.524509 0
-0.030875 -0.403618 0
-0.0125503 0.0809212 0
-0.0339357 0.141832 0
-0.0434457 0.156649 0
-0.0386031 0.154364 0
-0.0237806 0.146416 0
-0.00306225 0.136973 0
0.0208045 0.127581 0
0.0461241 0.118812 0
0.0718914 0.110722 0
0.0974751 0.103179 0
0.122429 0.0959926 0
0.146397 0.0889802 0
0.169065 0.0819872 0
0.190147 0.0749006 0
0.209383 0.0676504 0
0.226535 0.0602047 0
0.241404 0.0525565 0
0.253826 0.0447022 0
0.263667 0.0366107 0
0.270817 0.0281799 0
0.275153 0.0191779 0
0.276503 0.00916246 0
0.274569 -0.00264177 0
0.268762 -0.0175697 0
0.257956 -0.0376005 0
0.240296 -0.0654169 0
0.213077 -0.1047 0
0.17283 -0.16072 0
0.116228 -0.241481 0
0.0441872 -0.356972 0
-0.0213881 -0.492124 0
-0.023836 -0.458329 0