# vtk DataFile Version 2.0
Lid-driven cavity
ASCII
DATASET STRUCTURED_POINTS
DIMENSIONS 32 32 1
ORIGIN 0.015625 0.015625 0
SPACING 0.03125 0.03125 1
POINT_DATA 1024
SCALARS pressure double 1
LOOKUP_TABLE default
1.99928
1.97716
1.95704
1.95182
1.96716
2.00485
2.06491
2.14679
2.24979
2.37327
2.51657
2.67889
2.85915
3.05578
3.26664
3.48885
3.71878
3.95214
4.18393
4.40845
4.61966
4.81169
4.97928
5.1183
5.22616
5.30215
5.3475
5.36537
5.36081
5.34082
5.31485
5.29563
2.02141
1.99886
1.98522
1.98667
2.00678
2.04708
2.10796
2.18923
2.29053
2.41138
2.55123
2.7093
2.88451
3.07534
3.27965
3.49467
3.71687
3.94218
4.16592
4.38265
4.58665
4.77238
4.93494
5.07051
5.17681
5.25332
5.30142
5.32424
5.32655
5.31446
5.29517
5.27641
2.04168
2.01129
1.99734
2.00123
2.02401
2.06618
2.1278
2.20874
2.30877
2.42758
2.56474
2.71964
2.89132
3.07836
3.27879
3.48996
3.70843
3.93031
4.15104
4.36518
4.56701
4.75096
4.9121
5.04661
5.15225
5.22862
5.27722
5.30124
5.30523
5.29456
5.2747
5.25025
2.04542
2.00608
1.9891
1.99299
2.01682
2.05999
2.12204
2.20269
2.30175
2.41905
2.55434
2.70719
2.87686
3.06214
3.26128
3.47178
3.69035
3.91313
4.13548
4.35178
4.55605
4.74239
4.90552
5.04134
5.14747
5.2235
5.27106
5.29356
5.2956
5.28225
5.25823
5.22686
2.02359
1.97619
1.95548
1.95821
1.98208
2.02554
2.08768
2.16803
2.26639
2.38272
2.51695
2.66889
2.83807
3.02358
3.22391
3.43681
3.65915
3.88694
4.11531
4.33831
4.54948
4.74232
4.91093
5.05064
5.15869
5.23458
5.28014
5.29915
5.29665
5.27801
5.24807
5.21018
1.97023
1.916
1.89168
1.89286
1.91621
1.95953
2.02153
2.10158
2.19949
2.31536
2.44932
2.60145
2.77159
2.95916
3.16299
3.38114
3.61067
3.84738
4.08602
4.32022
4.54285
4.74656
4.92449
5.0711
5.18298
5.2594
5.30242
5.31644
5.30735
5.28145
5.24439
5.20038
1.88097
1.82095
1.7934
1.79296
1.81557
1.85851
1.92023
2.00001
2.0977
2.21354
2.34788
2.50111
2.67341
2.86457
3.07385
3.29966
3.53939
3.78863
4.04166
4.29162
4.53057
4.75005
4.94189
5.09925
5.21769
5.29597
5.33637
5.34416
5.3266
5.29147
5.24588
5.19537
1.75227
1.68721
1.65677
1.65479
1.67655
1.71899
1.78033
1.85982
1.95739
2.07341
2.20851
2.36336
2.53852
2.73424
2.95021
3.18536
3.43755
3.70238
3.9736
4.2439
4.50447
4.7455
4.95706
5.13045
5.25958
5.34225
5.38071
5.38134
5.35328
5.30653
5.25026
5.19178
1.58102
1.5114
1.47832
1.47484
1.49568
1.53744
1.59822
1.67724
1.77451
1.89057
2.02628
2.18262
2.36056
2.56082
2.78365
3.0286
3.29419
3.57665
3.86912
4.16411
4.45201
4.72146
4.96034
5.15728
5.30363
5.39528
5.43397
5.42714
5.38641
5.32491
5.25471
5.18542
1.36434
1.29046
1.25485
1.24981
1.26955
1.31035
1.37017
1.44823
1.5446
1.65996
1.79537
1.95211
2.13154
2.33491
2.56313
2.81651
3.09443
3.39461
3.70989
4.03303
4.35396
4.65984
4.93588
5.16712
5.34091
5.44976
5.49362
5.48055
5.42514
5.34487
5.25608
5.17152
1.09953
1.02153
0.98337
0.976601
0.994898
1.03422
1.09238
1.16855
1.26282
1.37594
1.50911
1.66384
1.84186
2.04495
2.27477
2.5326
2.81906
3.13362
3.47052
3.8232
4.18196
4.53289
4.85835
5.13874
5.35556
5.49552
5.55443
5.53957
5.46855
5.36478
5.251
5.14481
0.784042
0.701967
0.661116
0.652289
0.668603
0.705667
0.761092
0.833916
0.924161
1.03254
1.16025
1.30895
1.48059
1.67746
1.90204
2.15682
2.44399
2.76498
3.11789
3.49758
3.89633
4.30029
4.68929
5.03825
5.32064
5.51387
5.60576
5.59959
5.51502
5.383
5.23601
5.09944
0.415508
0.329313
0.285533
0.274192
0.287809
0.321574
0.3728
0.440286
0.523829
0.623919
0.741584
0.878345
1.03626
1.21796
1.42674
1.66648
1.94144
2.25569
2.61201
3.00969
3.44538
3.90734
4.37417
4.81513
5.19345
5.47296
5.62758
5.65083
5.56106
5.39765
5.20751
5.029
-0.00824357
-0.0986782
-0.145696
-0.160077
-0.149975
-0.120717
-0.0754227
-0.0157034
0.0578039
0.145116
0.246773
0.36387
0.498208
0.652536
0.830825
1.03848
1.28228
1.56997
1.90903
2.30639
2.76748
3.28597
3.84186
4.39993
4.91179
5.32304
5.58584
5.67471
5.59938
5.40618
5.16204
4.92669
-0.489169
-0.584057
-0.634644
-0.652562
-0.646737
-0.623165
-0.585579
-0.536224
-0.47645
-0.407048
-0.328358
-0.240164
-0.141388
-0.0296142
0.099507
0.252838
0.440076
0.673465
0.966389
1.33419
1.79733
2.3601
3.00848
3.70598
4.39309
4.9933
5.4281
5.63982
5.61648
5.40488
5.09677
4.78596
-1.02906
-1.12874
-1.18319
-1.20495
-1.20386
-1.18681
-1.15836
-1.12169
-1.07918
-1.03285
-0.984398
-0.935051
-0.885077
-0.833028
-0.77472
-0.702139
-0.602551
-0.458328
-0.248086
0.0504764
0.477137
1.05678
1.78746
2.63722
3.53896
4.39293
5.08145
5.49854
5.59019
5.38853
5.01088
4.60206
-1.62968
-1.7347
-1.79316
-1.81863
-1.82209
-1.81157
-1.79279
-1.77019
-1.74757
-1.7286
-1.71689
-1.71575
-1.72753
-1.75255
-1.7876
-1.82418
-1.8468
-1.83214
-1.7498
-1.56577
-1.2285
-0.677198
0.106418
1.10367
2.24765
3.41885
4.45551
5.18643
5.48817
5.35079
4.90805
4.37502
-2.29305
-2.40423
-2.4666
-2.4949
-2.50159
-2.49619
-2.48602
-2.47711
-2.47511
-2.48579
-2.5152
-2.56935
-2.65345
-2.7705
-2.91927
-3.09175
-3.27054
-3.42686
-3.52045
-3.50241
-3.31458
-2.855
-2.07048
-0.955669
0.434956
1.9724
3.45294
4.62692
5.2694
5.28622
4.80107
4.11508
-3.02197
-3.14055
-3.20628
-3.23534
-3.24215
-3.23833
-3.23322
-3.23494
-3.25135
-3.29074
-3.362
-3.47441
-3.63669
-3.8554
-4.13234
-4.46128
-4.82424
-5.18816
-5.50341
-5.70564
-5.72258
-5.43074
-4.71905
-3.5462
-1.93811
-0.015346
1.98922
3.74381
4.89095
5.19573
4.71981
3.85221
-3.82078
-3.94858
-4.01641
-4.04236
-4.04364
-4.03477
-4.02779
-4.03341
-4.06208
-4.12487
-4.2338
-4.40171
-4.64127
-4.96319
-5.37327
-5.86833
-6.43151
-7.02746
-7.5991
-8.06776
-8.33928
-8.2871
-7.73704
-6.59349
-4.83629
-2.55275
0.0208837
2.48301
4.32242
5.09784
4.72484
3.65263
-4.69664
-4.83628
-4.90379
-4.92009
-4.90654
-4.88184
-4.86168
-4.85994
-4.88998
-4.96575
-5.10246
-5.31643
-5.62435
-6.04128
-6.57749
-7.23391
-7.99646
-8.82997
-9.67301
-10.4358
-11.0035
-11.2396
-10.9402
-9.93074
-8.12851
-5.5587
-2.42247
0.842112
3.56968
5.04846
4.92993
3.64692
-5.66146
-5.81659
-5.8794
-5.87546
-5.83269
-5.77593
-5.72591
-5.70033
-5.7157
-5.7888
-5.93765
-6.1817
-6.54114
-7.03504
-7.67801
-8.47548
-9.41737
-10.4711
-11.5746
-12.6319
-13.5134
-14.0633
-14.0774
-13.3062
-11.5837
-8.8455
-5.21035
-1.09683
2.70647
5.17101
5.53747
4.0756
-6.73508
-6.91055
-6.96076
-6.9197
-6.82601
-6.71392
-6.61098
-6.53953
-6.51925
-6.56933
-6.70993
-6.96279
-7.35064
-7.89552
-8.61559
-9.52033
-10.604
-11.8382
-13.1638
-14.4844
-15.6636
-16.5282
-16.8709
-16.4163
-14.8921
-12.1235
-8.09808
-3.13974
1.90943
5.69571
6.88866
5.35679
-7.95076
-8.1523
-8.17533
-8.06999
-7.89312
-7.69321
-7.50703
-7.36219
-7.28112
-7.28456
-7.39372
-7.63129
-8.02113
-8.58673
-9.34828
-10.3181
-11.4942
-12.8528
-14.3398
-15.8632
-17.2875
-18.4322
-19.0794
-18.9601
-17.7123
-15.0326
-10.7359
-4.96726
1.48798
7.0021
9.52602
8.17715
-9.36519
-9.59771
-9.56549
-9.35116
-9.04292
-8.71073
-8.40299
-8.15238
-7.98284
-7.915
-7.96942
-8.16805
-8.53419
-9.09135
-9.86037
-10.8548
-12.0745
-13.4988
-15.0778
-16.725
-18.3113
-19.6608
-20.5495
-20.7028
-19.7339
-17.1951
-12.7014
-6.14107
1.90054
9.65413
14.2587
13.6019
-11.0786
-11.3394
-11.1953
-10.796
-10.2839
-9.75932
-9.2834
-8.89146
-8.6058
-8.44401
-8.42366
-8.56389
-8.88595
-9.41199
-10.1619
-11.1486
-12.3723
-13.8128
-15.4224
-17.1186
-18.7777
-20.2307
-21.2583
-21.5689
-20.7602
-18.2741
-13.5434
-6.12627
3.75259
14.4146
22.2143
23.1965
-13.2775
-13.5342
-13.1577
-12.4401
-11.6142
-10.818
-10.1203
-9.55167
-9.12621
-8.85379
-8.74541
-8.81514
-9.08081
-9.56189
-10.276
-11.2342
-12.4347
-13.8564
-15.4511
-17.1369
-18.7917
-20.249
-21.2915
-21.6231
-20.7816
-18.1158
-12.864
-4.32156
7.77872
22.2265
34.8553
39.1537
-16.3345
-16.4488
-15.5722
-14.2979
-12.9943
-11.8278
-10.8537
-10.0806
-9.50251
-9.11407
-8.9152
-8.91329
-9.12138
-9.55518
-10.229
-11.1508
-12.3157
-13.6996
-15.2514
-16.8863
-18.4785
-19.8557
-20.7908
-20.9797
-19.8798
-16.7209
-10.5243
-0.259171
14.8021
34.1473
53.9233
64.4295
-21.0545
-20.5182
-18.5302
-16.2803
-14.275
-12.6362
-11.3498
-10.3693
-9.64787
-9.15602
-8.88105
-8.82221
-8.98673
-9.38567
-10.0292
-10.921
-12.0523
-13.3943
-14.8912
-16.4518
-17.9415
-19.1735
-19.8968
-19.7757
-18.1708
-14.1448
-6.49013
6.18885
25.2623
51.2067
81.2232
102.883
-29.3114
-26.2793
-21.8195
-17.9505
-15.0301
-12.8886
-11.3185
-10.1744
-9.36048
-8.8183
-8.51759
-8.44728
-8.60806
-9.00619
-9.64763
-10.532
-11.6457
-12.9552
-14.3981
-15.8749
-17.2384
-18.2805
-18.7135
-18.1405
-15.8014
-10.5798
-1.02702
14.6827
38.773
73.4556
118.383
159.273
-45.4833
-33.3059
-23.9357
-17.9104
-14.1431
-11.7278
-10.1235
-9.0356
-8.30729
-7.85615
-7.6425
-7.65147
-7.88199
-8.33894
-9.02655
-9.94204
-11.0688
-12.369
-13.7745
-15.1774
-16.4168
-17.2611
-17.3796
-16.2899
-13.1181
-6.63597
4.81839
23.5437
52.9092
98.2335
167.151
251.327
-84.2829
-35.5105
-18.9514
-12.5858
-9.67072
-8.11506
-7.19415
-6.62705
-6.2965
-6.15386
-6.18343
-6.3866
-6.77312
-7.35497
-8.14085
-9.13052
-10.3086
-11.6371
-13.0464
-14.4251
-15.6053
-16.3407
-16.2696
-14.84
-11.1667
-3.99248
8.44941
28.7612
61.2809
114.989
213.62
418.583
VECTORS velocity double
2.78995e-05 -2.78995e-05 0
-3.10378e-05 8.68367e-05 0
-0.000328154 0.000210279 0
-0.000839253 0.00030082 0
-0.00149698 0.000356907 0
-0.00224116 0.000387269 0
-0.00302908 0.000400652 0
-0.00383265 0.00040292 0
-0.00463244 0.000396868 0
-0.0054122 0.0003829 0
-0.00615499 0.000359887 0
-0.00684083 0.000325949 0
-0.0074459 0.000279125 0
-0.00794297 0.000217942 0
-0.00830282 0.000141906 0
-0.0084966 5.18762e-05 0
-0.00849864 -4.98334e-05 0
-0.00828918 -0.000159628 0
-0.0078584 -0.000271155 0
-0.00721096 -0.000376286 0
-0.00636882 -0.000465855 0
-0.00537232 -0.000530645 0
-0.004279 -0.000562676 0
-0.0031597 -0.000556621 0
-0.002092 -0.000511074 0
-0.00115163 -0.000429303 0
-0.000403046 -0.000319279 0
0.000109331 -0.000193097 0
0.000368883 -6.64561e-05 0
0.0003945 4.08389e-05 0
0.000252278 0.000101383 0
7.54472e-05 7.5447e-05 0
-9.15e-05 3.5701e-05 0
-0.000541949 0.000532623 0
-0.00151147 0.00103113 0
-0.00292555 0.00140516 0
-0.0046614 0.00164614 0
-0.00660108 0.00178189 0
-0.00865011 0.00184298 0
-0.0107371 0.00185113 0
-0.0128059 0.00181731 0
-0.0148073 0.00174361 0
-0.0166916 0.00162622 0
-0.0184047 0.00145852 0
-0.0198868 0.00123372 0
-0.0210735 0.000947194 0
-0.0218994 0.00059841 0
-0.0223027 0.000192418 0
-0.0222315 -0.000259569 0
-0.0216508 -0.000739999 0
-0.0205501 -0.00122226 0
-0.0189495 -0.00167328 0
-0.0169042 -0.00205624 0
-0.0145067 -0.00233433 0
-0.0118834 -0.0024756 0
-0.00918794 -0.00245842 0
-0.00658842 -0.00227649 0
-0.00425044 -0.00194224 0
-0.00231773 -0.00148763 0
-0.000892363 -0.000962495 0
-1.67408e-05 -0.000432233 0
0.000342171 2.20863e-05 0
0.000307266 0.000297263 0
0.000106384 0.000257278 0
-0.00024099 0.000368191 0
-0.00114293 0.00155252 0
-0.0028062 0.00264402 0
-0.00506356 0.00346371 0
-0.00774281 0.00400267 0
-0.0106903 0.00431257 0
-0.0137804 0.0044514 0
-0.0169124 0.00446166 0
-0.0200023 0.00436555 0
-0.0229734 0.0041679 0
-0.0257492 0.00386192 0
-0.0282486 0.00343535 0
-0.0303857 0.00287611 0
-0.0320713 0.00217716 0
-0.0332175 0.00134054 0
-0.0337443 0.000380374 0
-0.0335876 -0.000675445 0
-0.0327081 -0.00178425 0
-0.0310992 -0.00288764 0
-0.0287931 -0.00391468 0
-0.0258663 -0.0047869 0
-0.0224418 -0.0054257 0
-0.0186872 -0.00576216 0
-0.0148062 -0.00574829 0
-0.0110244 -0.00536798 0
-0.00756781 -0.00464529 0
-0.00463726 -0.00364784 0
-0.00238042 -0.0024845 0
-0.000866504 -0.00129976 0
-6.62263e-05 -0.000269576 0
0.000161707 0.000395898 0
7.87842e-05 0.000442447 0
-0.000381534 0.000990714 0
-0.00171641 0.00316681 0
-0.00404268 0.00501927 0
-0.00708213 0.00638526 0
-0.0106058 0.00728406 0
-0.0144287 0.00780161 0
-0.0184031 0.00802684 0
-0.0224091 0.00802415 0
-0.0263434 0.00782723 0
-0.0301097 0.0074437 0
-0.0336117 0.00686388 0
-0.0367493 0.00607042 0
-0.0394183 0.00504717 0
-0.0415133 0.0037867 0
-0.0429327 0.00229654 0
-0.0435854 0.000603919 0
-0.0434 -0.00124108 0
-0.0423334 -0.00316465 0
-0.0403782 -0.00507143 0
-0.0375686 -0.0068466 0
-0.0339878 -0.00836262 0
-0.0297721 -0.00949007 0
-0.0251117 -0.0101129 0
-0.0202438 -0.0101464 0
-0.0154387 -0.00955681 0
-0.0109752 -0.00837655 0
-0.00710914 -0.00671317 0
-0.00403768 -0.00474748 0
-0.00186539 -0.00272299 0
-0.000579314 -0.000932698 0
-3.62964e-05 0.000288068 0
3.78357e-05 0.000559066 0
-0.000505654 0.0018779 0
-0.0022315 0.00534035 0
-0.0051641 0.00810461 0
-0.00891567 0.0100909 0
-0.0131976 0.011384 0
-0.0177938 0.0121208 0
-0.0225389 0.0124273 0
-0.0273003 0.012391 0
-0.0319625 0.0120569 0
-0.0364173 0.0114351 0
-0.0405559 0.0105131 0
-0.0442661 0.00926901 0
-0.0474324 0.0076839 0
-0.0499389 0.00575145 0
-0.0516741 0.00348639 0
-0.0525381 0.00093079 0
-0.0524502 -0.00184127 0
-0.0513572 -0.00472404 0
-0.0492394 -0.00758508 0
-0.0461182 -0.0102637 0
-0.0420663 -0.0125783 0
-0.0372164 -0.0143399 0
-0.0317671 -0.0153728 0
-0.02598 -0.0155413 0
-0.0201678 -0.0147792 0
-0.0146681 -0.0131173 0
-0.00980544 -0.0107011 0
-0.00584407 -0.00779236 0
-0.00294222 -0.00475225 0
-0.00111768 -0.00201404 0
-0.00023281 -5.84772e-05 0
8.83908e-07 0.000597785 0
-0.0006139 0.00299746 0
-0.00268534 0.00801807 0
-0.0061598 0.0118339 0
-0.0105505 0.0145039 0
-0.0155122 0.0162146 0
-0.0207996 0.0171738 0
-0.0262333 0.017553 0
-0.0316723 0.0174656 0
-0.0369959 0.0169682 0
-0.0420902 0.016073 0
-0.0468411 0.0147647 0
-0.0511307 0.0130172 0
-0.0548374 0.0108086 0
-0.057838 0.00813381 0
-0.0600126 0.0050139 0
-0.0612497 0.00150431 0
-0.0614529 -0.00229948 0
-0.0605479 -0.00626386 0
-0.0584875 -0.0102234 0
-0.0552618 -0.0139723 0
-0.0509132 -0.0172702 0
-0.0455528 -0.0198582 0
-0.0393726 -0.0214841 0
-0.0326507 -0.021939 0
-0.0257439 -0.0211007 0
-0.0190615 -0.018978 0
-0.0130203 -0.0157444 0
-0.00798271 -0.011748 0
-0.00419143 -0.0074897 0
-0.00171724 -0.00357532 0
-0.000435424 -0.0006639 0
-3.22895e-05 0.00056638 0
-0.000708107 0.00431946 0
-0.00308223 0.0111416 0
-0.00703493 0.0161376 0
-0.011994 0.0195501 0
-0.0175646 0.0217006 0
-0.0234765 0.0228872 0
-0.0295397 0.0233365 0
-0.0356106 0.023192 0
-0.0415682 0.0225231 0
-0.0473001 0.0213443 0
-0.0526929 0.019637 0
-0.0576285 0.01737 0
-0.0619832 0.0145171 0
-0.0656284 0.0110713 0
-0.0684339 0.0070565 0
-0.0702712 0.00253597 0
-0.0710188 -0.0023803 0
-0.0705676 -0.00753921 0
-0.0688258 -0.0127502 0
-0.0657321 -0.017765 0
-0.0612775 -0.0222807 0
-0.0555302 -0.0259554 0
-0.0486586 -0.0284388 0
-0.0409462 -0.0294185 0
-0.0327927 -0.0286815 0
-0.0246918 -0.0261804 0
-0.0171812 -0.0220938 0
-0.0107631 -0.0168543 0
-0.00581041 -0.0111274 0
-0.00248351 -0.00573872 0
-0.000686335 -0.00157949 0
-7.07935e-05 0.000463296 0
-0.000789679 0.00581725 0
-0.00342667 0.0146549 0
-0.00779736 0.0209476 0
-0.0132583 0.02516 0
-0.0193737 0.0277767 0
-0.0258546 0.029204 0
-0.0325055 0.0297339 0
-0.0391848 0.0295448 0
-0.0457778 0.028721 0
-0.0521791 0.0272796 0
-0.0582825 0.0251978 0
-0.0639745 0.022437 0
-0.0691324 0.0189627 0
-0.0736221 0.0147608 0
-0.0772996 0.00984996 0
-0.0800117 0.00429181 0
-0.0815998 -0.00180037 0
-0.0819062 -0.00826401 0
-0.0807785 -0.0148949 0
-0.0780847 -0.0214079 0
-0.073743 -0.0274341 0
-0.067757 -0.0325352 0
-0.0602502 -0.0362373 0
-0.0514942 -0.0380883 0
-0.0419227 -0.0377369 0
-0.0321189 -0.0350297 0
-0.0227667 -0.0301074 0
-0.0145557 -0.0234697 0
-0.00805055 -0.0159698 0
-0.00355808 -0.0087157 0
-0.0010442 -0.00291357 0
-0.000127432 0.00026507 0
-0.000859244 0.00746617 0
-0.00372112 0.0185049 0
-0.00845212 0.0261994 0
-0.0143515 0.0312686 0
-0.0209525 0.0343845 0
-0.0279537 0.0360781 0
-0.0351596 0.0367165 0
-0.0424364 0.0365183 0
-0.0496814 0.0355854 0
-0.0568026 0.0339377 0
-0.0637062 0.0315466 0
-0.0702879 0.028362 0
-0.0764277 0.0243352 0
-0.0819851 0.0194355 0
-0.0867971 0.0136648 0
-0.0906775 0.00706952 0
-0.093419 -0.000248463 0
-0.0948013 -0.00812726 0
-0.0945991 -0.0163615 0
-0.0925954 -0.0246388 0
-0.0886169 -0.0325233 0
-0.0825812 -0.0394677 0
-0.0745432 -0.0448496 0
-0.064738 -0.0480371 0
-0.0536118 -0.0484858 0
-0.0418279 -0.0458684 0
-0.0302293 -0.0402196 0
-0.0197368 -0.032061 0
-0.0111802 -0.0224402 0
-0.00509616 -0.0128217 0
-0.00157318 -0.00484441 0
-0.000215836 -7.81989e-05 0
-0.000916652 0.00924207 0
-0.00396537 0.0226396 0
-0.00899937 0.0318297 0
-0.0152745 0.0378128 0
-0.0223023 0.0414691 0
-0.0297756 0.043468 0
-0.0375047 0.0442616 0
-0.045369 0.0441144 0
-0.0532831 0.0431484 0
-0.0611741 0.0413869 0
-0.0689656 0.0387924 0
-0.076566 0.0352983 0
-0.0838591 0.0308318 0
-0.0906962 0.0253334 0
-0.0968906 0.0187732 0
-0.102215 0.0111657 0
-0.106404 0.00258565 0
-0.109164 -0.00681888 0
-0.110189 -0.0168472 0
-0.10917 -0.0271754 0
-0.105832 -0.0373037 0
-0.0999866 -0.046568 0
-0.0915964 -0.0541774 0
-0.080828 -0.059283 0
-0.068105 -0.0610892 0
-0.0541404 -0.0590134 0
-0.0399256 -0.0528879 0
-0.026641 -0.0431698 0
-0.0154584 -0.0310707 0
-0.00725392 -0.0184797 0
-0.00233802 -0.00762527 0
-0.000349335 -0.000643371 0
-0.000961088 0.0111198 0
-0.00415669 0.0270062 0
-0.00943407 0.0377745 0
-0.0160193 0.0447284 0
-0.023411 0.0489729 0
-0.0313023 0.0513288 0
-0.039514 0.0523416 0
-0.0479432 0.0523278 0
-0.0565266 0.0514326 0
-0.0652149 0.049682 0
-0.0739529 0.0470268 0
-0.0826644 0.0433758 0
-0.0912379 0.0386209 0
-0.0995151 0.0326586 0
-0.107282 0.0254093 0
-0.114266 0.0168377 0
-0.120138 0.00697477 0
-0.124526 -0.00405983 0
-0.127042 -0.0160661 0
-0.127288 -0.0287286 0
-0.124884 -0.0414936 0
-0.119525 -0.0535813 0
-0.111058 -0.0640215 0
-0.0995439 -0.0717217 0
-0.0853346 -0.0755828 0
-0.0691396 -0.0746795 0
-0.0520571 -0.0685191 0
-0.0355239 -0.0573565 0
-0.0211174 -0.0424732 0
-0.0101844 -0.0262147 0
-0.0034044 -0.0115863 0
-0.000541382 -0.00153409 0
-0.000991275 0.0130722 0
-0.0042905 0.0315486 0
-0.00974704 0.0439659 0
-0.0165707 0.0519459 0
-0.0242545 0.0568309 0
-0.0324966 0.0596042 0
-0.0411316 0.0609129 0
-0.0500771 0.0611313 0
-0.0592952 0.0604306 0
-0.0687625 0.0588396 0
-0.0784478 0.0562926 0
-0.0882916 0.0526653 0
-0.0981882 0.0478015 0
-0.10797 0.0415372 0
-0.117397 0.033725 0
-0.126153 0.0242612 0
-0.133846 0.0131172 0
-0.140032 0.000371266 0
-0.14424 -0.0137738 0
-0.145995 -0.0290189 0
-0.144823 -0.0447803 0
-0.1403 -0.060175 0
-0.132137 -0.0740582 0
-0.120252 -0.0850843 0
-0.104868 -0.0918137 0
-0.0866138 -0.0928978 0
-0.0666175 -0.0873795 0
-0.046525 -0.0751217 0
-0.0283476 -0.0572919 0
-0.0140374 -0.0366393 0
-0.00484264 -0.0171364 0
-0.000807068 -0.00288254 0
-0.00100579 0.0150692 0
-0.00436151 0.0362065 0
-0.00992716 0.0503303 0
-0.016909 0.059387 0
-0.0248006 0.0649653 0
-0.0333075 0.0682189 0
-0.0422791 0.0699047 0
-0.0516544 0.0704603 0
-0.0614208 0.070086 0
-0.0715818 0.0688126 0
-0.0821304 0.0665535 0
-0.0930248 0.0631426 0
-0.104167 0.058363 0
-0.115385 0.0519752 0
-0.126417 0.0437471 0
-0.136914 0.0334908 0
-0.146437 0.021104 0
-0.154479 0.00661275 0
-0.160496 -0.00979046 0
-0.163948 -0.0277952 0
-0.164291 -0.0468331 0
-0.160992 -0.0659436 0
-0.153614 -0.0838308 0
-0.1419 -0.0989105 0
-0.125881 -0.109392 0
-0.106013 -0.113442 0
-0.0833424 -0.109502 0
-0.0596244 -0.09681 0
-0.0372733 -0.0761321 0
-0.0189549 -0.0504277 0
-0.00673116 -0.0247664 0
-0.00116484 -0.00485444 0
-0.00100351 0.0170785 0
-0.00436538 0.0409148 0
-0.00996467 0.0567869 0
-0.0170156 0.0669631 0
-0.0250163 0.0732814 0
-0.0336795 0.0770729 0
-0.0428678 0.0792106 0
-0.0525392 0.0802011 0
-0.0627042 0.0802766 0
-0.0733909 0.0794697 0
-0.0846152 0.0776692 0
-0.0963537 0.0746598 0
-0.10852 0.0701541 0
-0.120944 0.0638253 0
-0.133358 0.0553447 0
-0.145396 0.0444278 0
-0.156594 0.0308873 0
-0.166408 0.0146865 0
-0.174243 -0.00401276 0
-0.179509 -0.024855 0
-0.181613 -0.0473257 0
-0.179935 -0.0704286 0
-0.173896 -0.0927619 0
-0.163044 -0.112546 0
-0.147157 -0.127663 0
-0.126421 -0.135774 0
-0.101663 -0.134599 0
-0.0745899 -0.122504 0
-0.047913 -0.0994662 0
-0.0250556 -0.0682696 0
-0.00915538 -0.0350485 0
-0.00163739 -0.00765667 0
-0.000984135 0.0190662 0
-0.00430077 0.0456056 0
-0.00985535 0.0632499 0
-0.0168796 0.0745753 0
-0.024877 0.0816673 0
-0.0335652 0.0860383 0
-0.0428153 0.0886835 0
-0.0525992 0.0901835 0
-0.0629454 0.0908054 0
-0.073902 0.0905842 0
-0.085505 0.089382 0
-0.0977498 0.0869304 0
-0.110567 0.0828663 0
-0.1238 0.0767699 0
-0.137195 0.0682099 0
-0.150393 0.056799 0
-0.162936 0.0422567 0
-0.174278 0.024473 0
-0.183808 0.00356596 0
-0.190899 -0.0200763 0
-0.194927 -0.0459725 0
-0.195231 -0.0731567 0
-0.191114 -0.100188 0
-0.181918 -0.125168 0
-0.167129 -0.145718 0
-0.146565 -0.159018 0
-0.120676 -0.162001 0
-0.0909265 -0.151924 0
-0.0601283 -0.127521 0
-0.0324042 -0.0907964 0
-0.0121997 -0.0486263 0
-0.0022512 -0.0115453 0
-0.000948784 0.0209991 0
-0.00417163 0.0502122 0
-0.00960529 0.0696316 0
-0.0165048 0.0821174 0
-0.0243773 0.0899953 0
-0.0329399 0.094961 0
-0.0420657 0.0981367 0
-0.0517331 0.100182 0
-0.0619809 0.101401 0
-0.0728711 0.101835 0
-0.084456 0.101319 0
-0.0967504 0.0995326 0
-0.109707 0.0960379 0
-0.1232 0.0903239 0
-0.137007 0.0818585 0
-0.150811 0.0701524 0
-0.164193 0.0548289 0
-0.176647 0.0356962 0
-0.187587 0.0128132 0
-0.196364 -0.0134558 0
-0.202358 -0.0425709 0
-0.204921 -0.0736915 0
-0.203272 -0.10542 0
-0.196565 -0.13584 0
-0.18397 -0.162431 0
-0.164861 -0.181979 0
-0.139159 -0.190631 0
-0.10785 -0.184354 0
-0.0735773 -0.160162 0
-0.0409753 -0.118481 0
-0.0159339 -0.0661873 0
-0.00303508 -0.0168315 0
-0.000900629 0.0228485 0
-0.00398969 0.0546747 0
-0.00923593 0.075849 0
-0.0159181 0.0894816 0
-0.0235421 0.0981277 0
-0.0318172 0.103666 0
-0.0406104 0.10735 0
-0.0498977 0.109923 0
-0.0597206 0.111731 0
-0.0701477 0.112823 0
-0.0812438 0.113012 0
-0.093043 0.111933 0
-0.105528 0.109079 0
-0.118612 0.103859 0
-0.132129 0.0956489 0
-0.145829 0.0838654 0
-0.15937 0.0680395 0
-0.172324 0.047893 0
-0.184177 0.0234094 0
-0.194344 -0.00510811 0
-0.20223 -0.0370385 0
-0.207195 -0.0716953 0
-0.208448 -0.107813 0
-0.205008 -0.143594 0
-0.195743 -0.176537 0
-0.17953 -0.203195 0
-0.155626 -0.21902 0
-0.1243 -0.218599 0
-0.0876921 -0.196797 0
-0.0506212 -0.15152 0
-0.0203996 -0.088412 0
-0.00401932 -0.0238859 0
-0.000845508 0.0245947 0
-0.00377687 0.058949 0
-0.00878898 0.0818331 0
-0.0151771 0.0965678 0
-0.0224371 0.105926 0
-0.0302619 0.111968 0
-0.0385044 0.116084 0
-0.0471311 0.119103 0
-0.056178 0.12142 0
-0.0657148 0.123097 0
-0.0758147 0.123934 0
-0.0865312 0.123527 0
-0.0978804 0.121319 0
-0.109828 0.116651 0
-0.122278 0.108826 0
-0.135072 0.0971819 0
-0.147976 0.0811687 0
-0.160684 0.0604252 0
-0.172807 0.034853 0
-0.183874 0.00468225 0
-0.193346 -0.0294718 0
-0.200643 -0.0669987 0
-0.205039 -0.106862 0
-0.205487 -0.147536 0
-0.200602 -0.186746 0
-0.188756 -0.221045 0
-0.168448 -0.245382 0
-0.139004 -0.253007 0
-0.101691 -0.236311 0
-0.0610572 -0.18971 0
-0.0256011 -0.115899 0
-0.00523726 -0.0331425 0
-0.000792593 0.0262328 0
-0.00356786 0.0630175 0
-0.00833141 0.0875402 0
-0.0143766 0.103294 0
-0.0211764 0.113259 0
-0.0283992 0.119682 0
-0.0358782 0.124091 0
-0.0435649 0.127409 0
-0.0514862 0.130083 0
-0.0597087 0.132194 0
-0.0683119 0.13354 0
-0.0773685 0.133694 0
-0.0869307 0.132063 0
-0.0970208 0.127944 0
-0.107625 0.120587 0
-0.118688 0.109277 0
-0.130109 0.0933995 0
-0.141733 0.072527 0
-0.153342 0.0464831 0
-0.16463 0.0154067 0
-0.175166 -0.0201881 0
-0.184492 -0.0596591 0
-0.192011 -0.102287 0
-0.196707 -0.146966 0
-0.197025 -0.191883 0
-0.190891 -0.233887 0
-0.176005 -0.267734 0
-0.150575 -0.285529 0
-0.114621 -0.277056 0
-0.0718657 -0.232353 0
-0.0315061 -0.149072 0
-0.0067301 -0.0451099 0
-0.000755241 0.0277806 0
-0.00341314 0.0669029 0
-0.00796059 0.0929659 0
-0.0136552 0.109608 0
-0.019929 0.120019 0
-0.0264197 0.126637 0
-0.0329393 0.131136 0
-0.0394253 0.134537 0
-0.0458959 0.137346 0
-0.052415 0.139672 0
-0.0590686 0.141319 0
-0.0659491 0.141853 0
-0.0731455 0.140664 0
-0.0807379 0.137026 0
-0.0887942 0.130166 0
-0.0973675 0.119335 0
-0.106492 0.103887 0
-0.116179 0.0833503 0
-0.126399 0.0574888 0
-0.137062 0.0263517 0
-0.147968 -0.00969023 0
-0.158815 -0.0499855 0
-0.169144 -0.0941118 0
-0.178084 -0.141505 0
-0.184058 -0.191052 0
-0.184662 -0.240248 0
-0.176854 -0.284067 0
-0.157629 -0.313852 0
-0.125426 -0.316891 0
-0.0825156 -0.278185 0
-0.0380522 -0.188064 0
-0.00855313 -0.0603931 0
-0.000752413 0.0292883 0
-0.00338354 0.0706842 0
-0.00781103 0.0981594 0
-0.0132008 0.115499 0
-0.0189213 0.126122 0
-0.0245773 0.13268 0
-0.0299663 0.137001 0
-0.0350203 0.140212 0
-0.039756 0.142878 0
-0.0442408 0.145144 0
-0.0485709 0.14683 0
-0.0528602 0.147511 0
-0.0572343 0.146576 0
-0.0618289 0.1433 0
-0.0667891 0.136908 0
-0.0722702 0.126647 0
-0.0784355 0.111865 0
-0.0854535 0.0920767 0
-0.0934904 0.0670193 0
-0.10269 0.0366843 0
-0.113128 0.00132135 0
-0.12472 -0.038559 0
-0.137206 -0.0827233 0
-0.14995 -0.131208 0
-0.161514 -0.183812 0
-0.169366 -0.239032 0
-0.169889 -0.292567 0
-0.158894 -0.335572 0
-0.133001 -0.353266 0
-0.0923799 -0.32534 0
-0.0451495 -0.232602 0
-0.0107785 -0.0797248 0
-0.000811326 0.030852 0
-0.00357799 0.0745183 0
-0.00806436 0.103239 0
-0.0132584 0.121003 0
-0.0184385 0.131519 0
-0.0231826 0.137683 0
-0.0272924 0.141497 0
-0.0307135 0.144191 0
-0.0334772 0.146398 0
-0.0356658 0.148298 0
-0.0373937 0.149735 0
-0.0387999 0.150302 0
-0.0400469 0.149406 0
-0.0413212 0.146339 0
-0.042838 0.140346 0
-0.0448432 0.130695 0
-0.0476143 0.116753 0
-0.0514593 0.0980513 0
-0.0567141 0.0743364 0
-0.0637338 0.0455869 0
-0.0728548 0.0119774 0
-0.0842734 -0.0262046 0
-0.0979847 -0.0688807 0
-0.113643 -0.116648 0
-0.130112 -0.170339 0
-0.145012 -0.229754 0
-0.154458 -0.291876 0
-0.15329 -0.348426 0
-0.136226 -0.383369 0
-0.100729 -0.371355 0
-0.0526641 -0.281882 0
-0.0134883 -0.103992 0
-0.000972652 0.032636 0
-0.00413744 0.0786657 0
-0.00896505 0.108406 0
-0.0141389 0.126204 0
-0.0188215 0.13618 0
-0.0225874 0.141532 0
-0.025278 0.144449 0
-0.026885 0.146268 0
-0.0274795 0.14768 0
-0.0271757 0.148901 0
-0.0261171 0.149801 0
-0.0244734 0.149998 0
-0.0224436 0.148927 0
-0.0202603 0.14591 0
-0.0181989 0.140231 0
-0.0165841 0.131201 0
-0.0157909 0.118226 0
-0.0162412 0.100874 0
-0.0184027 0.0789299 0
-0.0227827 0.0523931 0
-0.029911 0.0214205 0
-0.0402692 -0.013871 0
-0.0541243 -0.0536479 0
-0.0714218 -0.0989259 0
-0.0914689 -0.151544 0
-0.11236 -0.212759 0
-0.130415 -0.28137 0
-0.139946 -0.350568 0
-0.133938 -0.404299 0
-0.106674 -0.413187 0
-0.0603602 -0.33443 0
-0.0167502 -0.13423 0
-0.00130058 0.0349092 0
-0.00526931 0.083526 0
-0.0108436 0.113947 0
-0.0162259 0.131219 0
-0.0204534 0.140076 0
-0.0231512 0.1441 0
-0.0242608 0.145681 0
-0.0238681 0.14625 0
-0.0221162 0.14654 0
-0.019172 0.146792 0
-0.0152195 0.146898 0
-0.0104638 0.146501 0
-0.00513948 0.145069 0
0.000479311 0.141965 0
0.00606223 0.136531 0
0.011214 0.128134 0
0.0154775 0.116236 0
0.0183384 0.100453 0
0.0192381 0.0806123 0
0.0175869 0.0567419 0
0.0127759 0.0290111 0
0.00418353 -0.00251103 0
-0.00870507 -0.0382641 0
-0.026128 -0.0795893 0
-0.0478635 -0.129098 0
-0.0728039 -0.189374 0
-0.098061 -0.261443 0
-0.118137 -0.340887 0
-0.124822 -0.413304 0
-0.109023 -0.447245 0
-0.0677794 -0.387929 0
-0.02057 -0.17155 0
-0.00190172 0.0381115 0
-0.00728759 0.0896783 0
-0.0141435 0.120225 0
-0.0199675 0.136147 0
-0.0237132 0.143121 0
-0.0251641 0.145203 0
-0.0244558 0.144978 0
-0.0218308 0.143935 0
-0.0175409 0.142814 0
-0.0118243 0.141858 0
-0.00491228 0.140968 0
0.00295949 0.139804 0
0.0115266 0.137875 0
0.0204688 0.134598 0
0.0294007 0.129383 0
0.0378679 0.121663 0
0.0453452 0.110966 0
0.0512472 0.0969606 0
0.0549483 0.0795044 0
0.0558114 0.0586379 0
0.0532229 0.0345148 0
0.0466249 0.00717565 0
0.0355254 -0.0239627 0
0.0195422 -0.0604845 0
-0.00165363 -0.105271 0
-0.0280049 -0.161909 0
-0.0579499 -0.233705 0
-0.0871441 -0.319354 0
-0.107217 -0.40808 0
-0.106034 -0.469451 0
-0.0740223 -0.438979 0
-0.024806 -0.216926 0
-0.00295881 0.042972 0
-0.0106697 0.0979146 0
-0.0194287 0.127604 0
-0.0258038 0.140968 0
-0.0288307 0.145073 0
-0.0286484 0.14452 0
-0.025719 0.142024 0
-0.0205132 0.139058 0
-0.0134231 0.136311 0
-0.00476673 0.133988 0
0.00518495 0.131974 0
0.0161673 0.129944 0
0.027885 0.12745 0
0.039988 0.123978 0
0.0520561 0.119003 0
0.063595 0.112037 0
0.0740386 0.102671 0
0.0827644 0.0906273 0
0.0891214 0.0757797 0
0.0924709 0.0581501 0
0.0922327 0.0378294 0
0.0879172 0.0147745 0
0.0790807 -0.0116256 0
0.0652689 -0.0430267 0
0.0460139 -0.0822785 0
0.0208493 -0.133386 0
-0.0104686 -0.200965 0
-0.0460302 -0.287338 0
-0.0788633 -0.387189 0
-0.095031 -0.475357 0
-0.0773846 -0.482731 0
-0.0290215 -0.270754 0
-0.00478367 0.0507145 0
-0.0161036 0.109203 0
-0.0272744 0.136245 0
-0.0338793 0.145306 0
-0.0354606 0.145343 0
-0.0328348 0.141442 0
-0.0269545 0.136293 0
-0.0185817 0.131211 0
-0.00826132 0.126747 0
0.0036205 0.123013 0
0.0167641 0.119854 0
0.0308914 0.116955 0
0.0457008 0.113912 0
0.0608364 0.110277 0
0.075872 0.1056 0
0.0903065 0.0994663 0
0.103572 0.091533 0
0.115051 0.0815608 0
0.124111 0.0694285 0
0.130149 0.0551146 0
0.13263 0.0386218 0
0.131119 0.0198087 0
0.125221 -0.00192571 0
0.114433 -0.0281264 0
0.0980909 -0.061582 0
0.0753199 -0.106146 0
0.0450319 -0.166599 0
0.00665781 -0.247769 0
-0.0366297 -0.350638 0
-0.071897 -0.460473 0
-0.0747619 -0.512396 0
-0.0322194 -0.331994 0
-0.00786837 0.0633666 0
-0.0243766 0.124379 0
-0.0377133 0.145577 0
-0.0430951 0.147961 0
-0.0414639 0.142637 0
-0.034766 0.134823 0
-0.0245931 0.126858 0
-0.0120129 0.119692 0
0.00230904 0.113623 0
0.0179558 0.108609 0
0.0346366 0.104434 0
0.0520981 0.100786 0
0.0700692 0.0973009 0
0.0882263 0.0935959 0
0.106177 0.089295 0
0.123459 0.0840552 0
0.139547 0.0775916 0
0.153873 0.0696962 0
0.165864 0.060242 0
0.174969 0.049159 0
0.180699 0.0363656 0
0.182638 0.0216367 0
0.180398 0.00438422 0
0.173441 -0.0166914 0
0.160918 -0.0441518 0
0.14151 -0.0813972 0
0.113318 -0.132868 0
0.0742211 -0.204029 0
0.0236968 -0.300566 0
-0.0304839 -0.421097 0
-0.0606749 -0.518716 0
-0.0323388 -0.396553 0
-0.0127572 0.0839921 0
-0.0354378 0.142942 0
-0.048096 0.153008 0
-0.0481477 0.145963 0
-0.0394796 0.134336 0
-0.0256066 0.122554 0
-0.00874594 0.112094 0
0.00984991 0.10328 0
0.0295171 0.0960462 0
0.0499021 0.0901541 0
0.0707962 0.0853137 0
0.0920313 0.0812093 0
0.11342 0.0775176 0
0.134723 0.0739191 0
0.155634 0.0701096 0
0.175779 0.0658141 0
0.194723 0.0608008 0
0.211993 0.0548903 0
0.227097 0.0479531 0