# vtk DataFile Version 2.0
Lid-driven cavity
ASCII
DATASET STRUCTURED_POINTS
DIMENSIONS 32 32 1
ORIGIN 0.015625 0.015625 0
SPACING 0.03125 0.03125 1
POINT_DATA 1024
SCALARS pressure double 1
LOOKUP_TABLE default
-0.486157
-0.488914
-0.486179
-0.476005
-0.457995
-0.432299
-0.399231
-0.359162
-0.312499
-0.259697
-0.201262
-0.137762
-0.0698231
0.00186394
0.0765497
0.153427
0.231635
0.310282
0.38844
0.465129
0.53935
0.610096
0.67637
0.737205
0.791682
0.838948
0.878234
0.908881
0.930397
0.94261
0.946096
0.943208
-0.4834
-0.486198
-0.482602
-0.471834
-0.453604
-0.427946
-0.395071
-0.355286
-0.308968
-0.256555
-0.198545
-0.135499
-0.0680404
0.00314783
0.0773203
0.153674
0.231352
0.309467
0.387104
0.463286
0.537016
0.607293
0.673125
0.733552
0.787665
0.834629
0.873708
0.90431
0.926053
0.938883
0.943265
0.940319
-0.486217
-0.490008
-0.486418
-0.475407
-0.456947
-0.431121
-0.398121
-0.358229
-0.3118
-0.25926
-0.201098
-0.13787
-0.0701931
0.00125072
0.0757186
0.152408
0.23046
0.308984
0.387062
0.463709
0.537918
0.608677
0.674985
0.735868
0.790409
0.837764
0.877204
0.908146
0.930213
0.943297
0.947606
0.943553
-0.496844
-0.501458
-0.498073
-0.486939
-0.4682
-0.442011
-0.408581
-0.368189
-0.321184
-0.267984
-0.209075
-0.145007
-0.0763983
-0.00392963
0.0716545
0.149548
0.228886
0.308763
0.388241
0.466317
0.541964
0.614145
0.681829
0.744012
0.799745
0.848158
0.888496
0.92015
0.942708
0.955985
0.960035
0.95506
-0.516101
-0.521273
-0.518045
-0.506747
-0.487608
-0.460833
-0.426655
-0.38536
-0.3373
-0.282893
-0.222623
-0.157043
-0.086771
-0.0124924
0.0650429
0.145021
0.226565
0.308746
0.390593
0.471075
0.54913
0.623681
0.69365
0.757984
0.815681
0.865823
0.907604
0.940371
0.963665
0.977249
0.981127
0.975504
-0.544353
-0.549934
-0.54676
-0.535183
-0.51547
-0.487855
-0.452591
-0.409976
-0.360369
-0.304193
-0.241936
-0.174155
-0.101475
-0.0245871
0.055749
0.138706
0.223392
0.308845
0.394051
0.47794
0.559404
0.637306
0.710504
0.777876
0.838345
0.890919
0.934723
0.969046
0.993381
1.00746
1.0113
1.00516
-0.581908
-0.587847
-0.584637
-0.572642
-0.552148
-0.523414
-0.486708
-0.442342
-0.390684
-0.332165
-0.267284
-0.196603
-0.120757
-0.0404468
0.043555
0.130405
0.219187
0.308907
0.398496
0.486836
0.572756
0.655047
0.73248
0.803839
0.867948
0.923716
0.970179
1.00655
1.03227
1.04706
1.05097
1.04435
-0.629148
-0.635459
-0.632142
-0.61958
-0.598086
-0.567935
-0.529415
-0.482852
-0.428628
-0.367184
-0.29903
-0.22474
-0.144958
-0.0603995
0.0281491
0.119825
0.213687
0.308702
0.403743
0.497633
0.589125
0.676917
0.759675
0.836059
0.904765
0.964574
1.0144
1.05337
1.08087
1.0966
1.10066
1.09349
-0.686573
-0.693303
-0.689819
-0.676543
-0.653816
-0.62194
-0.58122
-0.532002
-0.474682
-0.409719
-0.337633
-0.259014
-0.174517
-0.0848714
0.00912123
0.106578
0.206533
0.307912
0.409528
0.510135
0.608397
0.702902
0.792182
0.874745
0.949124
1.01393
1.06793
1.11013
1.13983
1.15674
1.16102
1.1532
-0.754812
-0.762024
-0.758324
-0.744182
-0.719981
-0.686055
-0.642735
-0.590388
-0.52943
-0.460339
-0.383652
-0.299974
-0.209972
-0.114389
-0.0140405
0.0901744
0.197265
0.306122
0.415493
0.52406
0.630387
0.732934
0.830071
0.920118
1.0014
1.0723
1.13141
1.17754
1.20994
1.2283
1.23284
1.22425
-0.83463
-0.8424
-0.838433
-0.823267
-0.797339
-0.761021
-0.714681
-0.658712
-0.593557
-0.519715
-0.437746
-0.348267
-0.251963
-0.149584
-0.0419568
0.0700083
0.185303
0.302791
0.421158
0.539011
0.65481
0.766866
0.87336
0.97238
1.06198
1.14028
1.20558
1.2565
1.29217
1.31226
1.31711
1.30757
-0.926936
-0.935351
-0.931068
-0.914707
-0.886776
-0.847703
-0.797897
-0.737788
-0.667853
-0.58862
-0.50067
-0.404643
-0.301232
-0.191197
-0.0753657
0.0453486
0.169932
0.297233
0.42589
0.55444
0.681234
0.804425
0.921974
1.03169
1.13128
1.2185
1.29131
1.34803
1.38763
1.40979
1.41498
1.40428
-1.0328
-1.04196
-1.0373
-1.01956
-0.989325
-0.947098
-0.893345
-0.828545
-0.753218
-0.667927
-0.573285
-0.46995
-0.358629
-0.240082
-0.11513
0.0153236
0.150278
0.288588
0.428867
0.569594
0.709026
0.84515
0.97568
1.09808
1.20965
1.30766
1.38957
1.45333
1.49767
1.52226
1.5278
1.51568
-1.15348
-1.16349
-1.1584
-1.13905
-1.10617
-1.06035
-1.00212
-0.932031
-0.850658
-0.758612
-0.656544
-0.545136
-0.425105
-0.297205
-0.162243
-0.0210893
0.12529
0.275786
0.429025
0.583459
0.737274
0.888302
1.034
1.17142
1.29735
1.40842
1.50144
1.57379
1.62385
1.65132
1.65717
1.64328
-1.29043
-1.30144
-1.29581
-1.27461
-1.23869
-1.18876
-1.12546
-1.04942
-0.961287
-0.861747
-0.751492
-0.631234
-0.501703
-0.363641
-0.217823
-0.0650684
0.0937235
0.25752
0.425017
0.594686
0.764691
0.93275
1.09606
1.25124
1.39441
1.52139
1.62806
1.71099
1.76804
1.7989
1.80498
1.78883
-1.44539
-1.45753
-1.45128
-1.4279
-1.38845
-1.33381
-1.26474
-1.182
-1.08633
-0.978489
-0.859246
-0.729351
-0.589543
-0.440551
-0.283101
-0.11794
0.0541373
0.232223
0.41516
0.601508
0.789498
0.976809
1.16042
1.33651
1.50043
1.64691
1.77056
1.86671
1.93244
1.96732
1.97343
1.95431
-1.62038
-1.63384
-1.62681
-1.60086
-1.55729
-1.49719
-1.42153
-1.33119
-1.22708
-1.11006
-0.980979
-0.840635
-0.689789
-0.529152
-0.359391
-0.181152
0.00490951
0.19807
0.397404
0.601672
0.809291
1.01804
1.22481
1.42538
1.61424
1.78479
1.92985
2.04291
2.11966
2.15942
2.16518
2.14201
-1.81784
-1.83284
-1.82483
-1.79576
-1.7473
-1.68082
-1.59753
-1.49855
-1.38495
-1.25774
-1.11788
-0.966236
-0.803603
-0.630667
-0.448032
-0.256223
-0.0557177
0.153002
0.369328
0.592372
0.820902
1.05301
1.28572
1.5146
1.73335
1.93375
2.10625
2.24149
2.33282
2.37875
2.38352
2.35457
-2.04072
-2.05754
-2.04825
-2.01533
-1.96095
-1.88688
-1.79467
-1.68574
-1.56138
-1.4228
-1.2711
-1.10725
-0.932077
-0.746253
-0.550314
-0.344654
-0.129549
0.0948065
0.3282
0.570263
0.820307
1.07703
1.33799
1.59891
1.853
2.09042
2.29856
2.46388
2.57557
2.63004
2.63285
2.59522
-2.2927
-2.31167
-2.30064
-2.26285
-2.20113
-2.11786
-2.01505
-1.8945
-1.75782
-1.60647
-1.44172
-1.26466
-1.07616
-0.8769
-0.667358
-0.447798
-0.218289
0.0212814
0.271147
0.53157
0.802641
1.08402
1.37428
1.67007
1.96482
2.24756
2.50235
2.70974
2.85177
2.91969
2.91952
2.8683
-2.5784
-2.59994
-2.58647
-2.5423
-2.47128
-2.37662
-2.26097
-2.12667
-1.97571
-1.80987
-1.63063
-1.4392
-1.23653
-1.02331
-0.799979
-0.56669
-0.323334
-0.0695185
0.195423
0.472398
0.762453
1.0665
1.38479
1.71588
2.05491
2.39132
2.70659
2.97404
3.16405
3.25631
3.25342
3.18052
-2.90388
-2.92852
-2.91146
-2.85867
-2.77551
-2.6664
-2.53491
-2.38406
-2.21636
-2.03392
-1.83844
-1.6313
-1.41351
-1.18577
-0.948516
-0.701831
-0.445495
-0.178924
0.0988733
0.389337
0.694379
1.01632
1.35756
1.71979
2.10215
2.49775
2.88867
3.2416
3.50999
3.65036
3.65056
3.54392
-3.27733
-3.30568
-3.28311
-3.21821
-3.11873
-2.99086
-2.83946
-2.66841
-2.48083
-2.27917
-2.06539
-1.84094
-1.6069
-1.364
-1.11266
-0.852963
-0.584686
-0.307206
-0.0194374
0.280291
0.594395
0.926194
1.28022
1.66228
2.07833
2.53057
3.00903
3.47933
3.875
4.11185
4.13731
3.98276
-3.7103
-3.74297
-3.7115
-3.62892
-3.5068
-3.35401
-3.17714
-2.98114
-2.76972
-2.54568
-2.3111
-2.06746
-1.81585
-1.55698
-1.29125
-1.01884
-0.739595
-0.453092
-0.158483
0.145635
0.461488
0.79253
1.14418
1.52595
1.95331
2.44474
3.01072
3.63056
4.22373
4.64623
4.75753
4.54929
-4.22
-4.25718
-4.21048
-4.10098
-3.94651
-3.75992
-3.55003
-3.32292
-3.08281
-2.83261
-2.57433
-2.30936
-2.03863
-1.76275
-1.48213
-1.19698
-0.907402
-0.613345
-0.314584
-0.0106028
0.299679
0.618486
0.950477
1.30564
1.70857
2.20188
2.83295
3.62144
4.49787
5.2517
5.58533
5.35553
-4.83373
-4.87377
-4.79939
-4.64701
-4.44501
-4.21181
-3.95876
-3.6928
-3.41818
-3.1375
-2.85234
-2.56368
-2.27211
-1.97802
-1.68169
-1.38342
-1.08354
-0.782541
-0.481097
-0.180102
0.119466
0.417105
0.714489
1.01976
1.35792
1.80023
2.44683
3.39354
4.63496
5.92625
6.74539
6.62641
-5.59843
-5.63297
-5.50483
-5.28115
-5.00758
-4.70954
-4.40014
-4.08602
-3.77037
-3.45463
-3.13936
-2.8247
-2.51062
-2.19708
-1.88414
-1.57205
-1.26135
-0.953065
-0.64881
-0.351028
-0.0630925
0.210988
0.46829
0.712244
0.964879
1.30875
1.90934
2.96939
4.62458
6.69723
8.43998
8.773
-6.60226
-6.59991
-6.36017
-6.0133
-5.63065
-5.24289
-4.86124
-4.4889
-4.1259
-3.7711
-3.42316
-3.08085
-2.74318
-2.40949
-2.07942
-1.75307
-1.43109
-1.11486
-0.806715
-0.510234
-0.230522
0.0258421
0.252315
0.447757
0.630053
0.875431
1.40431
2.53145
4.60436
7.68717
10.9819
12.4824
-8.02811
-7.87633
-7.3916
-6.82796
-6.2818
-5.77497
-5.30578
-4.86769
-4.45394
-4.05887
-3.67822
-3.30884
-2.94851
-2.59572
-2.24962
-1.91004
-1.57759
-1.25386
-0.941509
-0.644472
-0.368218
-0.11951
0.0953588
0.276106
0.442009
0.665714
1.20197
2.44419
4.95274
9.21413
14.8324
18.8277
-10.2923
-9.58119
-8.54874
-7.61902
-6.85091
-6.20695
-5.64841
-5.14863
-4.69002
-4.26113
-3.85421
-3.46394
-3.08669
-2.72007
-2.36273
-2.01422
-1.67511
-1.34706
-1.03277
-0.736022
-0.46169
-0.214881
0.00183154
0.195411
0.397543
0.703348
1.40627
2.96686
6.12364
11.8432
20.6222
29.3936
-14.3628
-11.5956
-9.45616
-8.02749
-7.04107
-6.30114
-5.69984
-5.1805
-4.71276
-4.27952
-3.87057
-3.47947
-3.1021
-2.73588
-2.37942
-2.03236
-1.69545
-1.37051
-1.06012
-0.767648
-0.496726
-0.249559
-0.0225748
0.203113
0.480953
0.952465
1.94776
4.01327
8.09201
15.7643
29.2575
47.0792
-23.5601
-12.4455
-8.6602
-7.12319
-6.29781
-5.72378
-5.25191
-4.82856
-4.43205
-4.05254
-3.68491
-3.32628
-2.97492
-2.62995
-2.2912
-1.95923
-1.63549
-1.32218
-1.02201
-0.738121
-0.473187
-0.226898
0.00971473
0.266435
0.618547
1.24142
2.48675
4.97225
9.82978
19.3707
39.252
83.2308
VECTORS velocity double
-5.16913e-06 5.16921e-06 0
-0.000126352 0.000116014 0
-0.000446456 0.000204089 0
-0.000902646 0.000252101 0
-0.00142507 0.000270327 0
-0.00196676 0.000271361 0
-0.00250174 0.00026362 0
-0.00301671 0.000251348 0
-0.00350427 0.000236209 0
-0.00395912 0.000218642 0
-0.0043764 0.000198638 0
-0.00475111 0.00017608 0
-0.00507806 0.000150868 0
-0.00535188 0.000122955 0
-0.00556721 9.23725e-05 0
-0.00571883 5.92499e-05 0
-0.00580191 2.3826e-05 0
-0.00581215 -1.3591e-05 0
-0.00574573 -5.28233e-05 0
-0.00559964 -9.32684e-05 0
-0.00537216 -0.000134213 0
-0.00506309 -0.000174851 0
-0.00467398 -0.000214264 0
-0.00420834 -0.000251377 0
-0.00367216 -0.000284801 0
-0.0030749 -0.000312461 0
-0.00243161 -0.000330831 0
-0.001767 -0.000333776 0
-0.00112177 -0.000311459 0
-0.000559295 -0.000251013 0
-0.000164693 -0.000143589 0
-1.05518e-05 -1.05519e-05 0
-0.000118214 0.000128552 0
-0.000576366 0.000571966 0
-0.00141978 0.000911651 0
-0.00252152 0.00110247 0
-0.00375787 0.00117873 0
-0.00503791 0.00118468 0
-0.00630454 0.0011519 0
-0.00752408 0.00109757 0
-0.00867573 0.00102919 0
-0.00974454 0.000949323 0
-0.0107178 0.000858498 0
-0.0115835 0.000756632 0
-0.0123298 0.000643587 0
-0.0129452 0.000519387 0
-0.0134182 0.000384321 0
-0.0137383 0.000239026 0
-0.0138957 8.45428e-05 0
-0.013882 -7.77938e-05 0
-0.0136905 -0.000246576 0
-0.0133167 -0.000419389 0
-0.0127589 -0.000593362 0
-0.0120185 -0.000765199 0
-0.0111004 -0.000931096 0
-0.0100141 -0.00108651 0
-0.00877444 -0.00122548 0
-0.00740431 -0.00133916 0
-0.00593876 -0.00141297 0
-0.00443227 -0.00142273 0
-0.00296823 -0.00133178 0
-0.00166607 -0.00109533 0
-0.000674962 -0.000684984 0
-0.000138578 -0.000159682 0
-0.000214829 0.000461595 0
-0.000949338 0.00143158 0
-0.00219036 0.00213646 0
-0.0037463 0.00253536 0
-0.00546222 0.00269812 0
-0.00722724 0.00271034 0
-0.00896951 0.00263515 0
-0.0106443 0.00250864 0
-0.0122223 0.00234782 0
-0.0136822 0.00215937 0
-0.0150059 0.00194541 0
-0.016177 0.00170647 0
-0.0171797 0.00144278 0
-0.0179989 0.00115479 0
-0.0186204 0.000843419 0
-0.0190306 0.000510252 0
-0.0192175 0.000157665 0
-0.019171 -0.000211201 0
-0.0188834 -0.000592313 0
-0.0183503 -0.000980489 0
-0.0175708 -0.00136959 0
-0.0165477 -0.00175248 0
-0.0152888 -0.0021208 0
-0.0138074 -0.00246446 0
-0.0121244 -0.00277016 0
-0.0102708 -0.00301827 0
-0.00829276 -0.00317744 0
-0.00625992 -0.00319759 0
-0.00427506 -0.00300582 0
-0.00248241 -0.0025161 0
-0.0010666 -0.00167113 0
-0.000239132 -0.000537393 0
-0.000277206 0.00095363 0
-0.00119898 0.00259583 0
-0.00271498 0.00372924 0
-0.00457895 0.0043625 0
-0.00661082 0.00461877 0
-0.00868791 0.00463181 0
-0.0107316 0.00449963 0
-0.012692 0.00427938 0
-0.0145359 0.00399902 0
-0.0162383 0.0036704 0
-0.0177781 0.00329795 0
-0.0191365 0.00288335 0
-0.0202955 0.00242761 0
-0.0212382 0.00193192 0
-0.0219486 0.00139815 0
-0.0224119 0.000829092 0
-0.022615 0.000228799 0
-0.0225467 -0.000397229 0
-0.0221988 -0.00104171 0
-0.0215668 -0.00169617 0
-0.0206497 -0.00235061 0
-0.0194509 -0.00299326 0
-0.0179796 -0.00361024 0
-0.0162514 -0.00418463 0
-0.0142902 -0.00469416 0
-0.0121317 -0.00510641 0
-0.00982836 -0.00537069 0
-0.00745755 -0.005408 0
-0.00513259 -0.00510524 0
-0.00301354 -0.00432837 0
-0.00131355 -0.00297466 0
-0.000299179 -0.0010757 0
-0.000314052 0.00154489 0
-0.00135438 0.00396667 0
-0.00305357 0.00557359 0
-0.0051259 0.00645445 0
-0.00737029 0.00680308 0
-0.00965467 0.00680897 0
-0.0118963 0.00660775 0
-0.0140431 0.00627852 0
-0.01606 0.00586069 0
-0.0179205 0.0053716 0
-0.0196023 0.00481834 0
-0.021085 0.004204 0
-0.0223496 0.00353059 0
-0.0233782 0.00280024 0
-0.0241538 0.00201586 0
-0.0246607 0.0011816 0
-0.0248846 0.000303287 0
-0.0248136 -0.000611067 0
-0.0244384 -0.00155096 0
-0.0237529 -0.00250441 0
-0.0227552 -0.00345718 0
-0.0214483 -0.00439236 0
-0.0198409 -0.0052898 0
-0.0179494 -0.00612484 0
-0.0157994 -0.00686509 0
-0.0134295 -0.00746393 0
-0.0108962 -0.00784979 0
-0.00828333 -0.0079126 0
-0.00571339 -0.00749554 0
-0.00336149 -0.00640901 0
-0.00146623 -0.00448927 0
-0.000333402 -0.00170828 0
-0.000337241 0.00219618 0
-0.00145718 0.00547564 0
-0.00328621 0.00759285 0
-0.00551102 0.00873233 0
-0.00791315 0.00917172 0
-0.010352 0.00916352 0
-0.0127412 0.008884 0
-0.0150273 0.00843521 0
-0.0171746 0.00786825 0
-0.0191561 0.00720601 0
-0.0209487 0.00645828 0
-0.0225316 0.00562965 0
-0.0238851 0.00472313 0
-0.0249906 0.00374177 0
-0.0258301 0.00268948 0
-0.0263869 0.00157166 0
-0.0266455 0.000395779 0
-0.0265922 -0.00082787 0
-0.0262157 -0.00208592 0
-0.0255077 -0.0033629 0
-0.024464 -0.0046401 0
-0.0230854 -0.00589501 0
-0.0213793 -0.00710055 0
-0.0193616 -0.00822333 0
-0.0170587 -0.00921953 0
-0.0145113 -0.0100268 0
-0.0117808 -0.0105506 0
-0.00895818 -0.0106473 0
-0.00617713 -0.0101119 0
-0.00362955 -0.00869216 0
-0.00157789 -0.00615304 0
-0.000356774 -0.00239846 0
-0.000355498 0.00288892 0
-0.00153983 0.00708717 0
-0.00347704 0.00974756 0
-0.0058323 0.0111577 0
-0.00837212 0.0116883 0
-0.0109476 0.0116613 0
-0.0134689 0.0112967 0
-0.0158812 0.0107209 0
-0.0181483 0.00999697 0
-0.0202429 0.00915341 0
-0.0221421 0.00820267 0
-0.0238246 0.00715069 0
-0.0252704 0.0060014 0
-0.02646 0.00475856 0
-0.0273746 0.00342682 0
-0.027996 0.00201249 0
-0.0283067 0.000524304 0
-0.0282908 -0.00102565 0
-0.0279338 -0.00262166 0
-0.027224 -0.00424492 0
-0.0261536 -0.00587219 0
-0.0247202 -0.00747496 0
-0.0229284 -0.00901841 0
-0.0207925 -0.0104591 0
-0.018339 -0.0117402 0
-0.0156114 -0.0127811 0
-0.0126768 -0.0134615 0
-0.00963581 -0.0136001 0
-0.00663654 -0.0129393 0
-0.00389054 -0.0111583 0
-0.00168468 -0.00794447 0
-0.000378794 -0.00313403 0
-0.000373892 0.00361831 0
-0.00162231 0.00879053 0
-0.00366695 0.012026 0
-0.00615289 0.0137204 0
-0.00883223 0.0143448 0
-0.0115479 0.014296 0
-0.014206 0.0138413 0
-0.0167503 0.0131328 0
-0.0191442 0.0122461 0
-0.0213606 0.0112154 0
-0.0233764 0.0100557 0
-0.0251703 0.00877416 0
-0.026722 0.00737539 0
-0.0280113 0.0058635 0
-0.0290183 0.00424343 0
-0.0297228 0.00252183 0
-0.0301052 0.000708093 0
-0.030146 -0.00118462 0
-0.0298269 -0.00313884 0
-0.0291315 -0.00513288 0
-0.0280471 -0.00713905 0
-0.0265661 -0.00912249 0
-0.0246891 -0.0110397 0
-0.0224273 -0.0128355 0
-0.0198072 -0.0144374 0
-0.0168751 -0.0157434 0
-0.0137055 -0.0166032 0
-0.010412 -0.016793 0
-0.00716099 -0.0159968 0
-0.00418784 -0.01382 0
-0.00180676 -0.00986969 0
-0.000404314 -0.00391714 0
-0.000394967 0.00438717 0
-0.00171522 0.0105903 0
-0.00387864 0.0144343 0
-0.00650847 0.0164279 0
-0.00934168 0.0171498 0
-0.0122124 0.0170773 0
-0.0150227 0.0165283 0
-0.0177145 0.015682 0
-0.0202511 0.0146274 0
-0.0226053 0.0134046 0
-0.0247543 0.0120312 0
-0.0266771 0.0105153 0
-0.028353 0.00886186 0
-0.0297615 0.00707483 0
-0.0308813 0.00515882 0
-0.0316903 0.00312008 0
-0.0321658 0.000967741 0
-0.0322844 -0.00128487 0
-0.0320228 -0.00361939 0
-0.0313584 -0.00601202 0
-0.0302718 -0.00843096 0
-0.0287486 -0.0108348 0
-0.0267829 -0.0131702 0
-0.0243814 -0.0153682 0
-0.0215691 -0.0173372 0
-0.0183957 -0.0189491 0
-0.0149453 -0.0200175 0
-0.0113477 -0.0202698 0
-0.00779314 -0.0193255 0
-0.00454651 -0.0167111 0
-0.00195474 -0.0119514 0
-0.000435564 -0.00475702 0
-0.000419917 0.00520206 0
-0.00182387 0.0124997 0
-0.00412391 0.0169884 0
-0.00691799 0.0192977 0
-0.0099261 0.0201213 0
-0.0129729 0.0200233 0
-0.0159557 0.0193754 0
-0.018815 0.0183861 0
-0.0215136 0.0171585 0
-0.0240247 0.0157389 0
-0.0263261 0.0141473 0
-0.0283972 0.012393 0
-0.0302177 0.0104806 0
-0.0317666 0.00841348 0
-0.0330217 0.00619504 0
-0.0339589 0.00383012 0
-0.0345521 0.00132642 0
-0.0347733 -0.00130378 0
-0.0345929 -0.00404257 0
-0.0339808 -0.00686522 0
-0.0329085 -0.00973664 0
-0.031352 -0.0126089 0
-0.0292961 -0.0154177 0
-0.0267403 -0.0180779 0
-0.0237063 -0.0204739 0
-0.020247 -0.0224451 0
-0.016458 -0.0237611 0
-0.0124902 -0.0240916 0
-0.00856472 -0.0229838 0
-0.00498387 -0.0198802 0
-0.00213511 -0.0142228 0
-0.000473688 -0.00566627 0
-0.000449371 0.00607134 0
-0.00195117 0.0145361 0
-0.00440937 0.0197102 0
-0.00739209 0.0223527 0
-0.0105998 0.0232822 0
-0.0138465 0.0231559 0
-0.0170246 0.0224037 0
-0.0200728 0.0212653 0
-0.0229538 0.0198589 0
-0.0256416 0.0182373 0
-0.0281149 0.0164236 0
-0.0303543 0.0144273 0
-0.0323403 0.0122528 0
-0.0340521 0.00990205 0
-0.0354669 0.00737636 0
-0.0365588 0.0046779 0
-0.0372983 0.00181139 0
-0.0376522 -0.00121365 0
-0.0375837 -0.00438162 0
-0.0370532 -0.00766878 0
-0.0360203 -0.0110383 0
-0.0344478 -0.0144363 0
-0.0323071 -0.0177869 0
-0.0295864 -0.0209852 0
-0.0263008 -0.0238862 0
-0.0225051 -0.0262878 0
-0.0183084 -0.0279042 0
-0.0138891 -0.0283355 0
-0.00950799 -0.0270464 0
-0.00551668 -0.0233898 0
-0.00235368 -0.016725 0
-0.000519583 -0.00665954 0
-0.000483829 0.00700454 0
-0.00209933 0.0167202 0
-0.00473991 0.0226249 0
-0.00793845 0.0256193 0
-0.0113729 0.0266579 0
-0.0148451 0.0264991 0
-0.018242 0.0256355 0
-0.0215008 0.0243405 0
-0.0245843 0.0227483 0
-0.0274678 0.0209192 0
-0.0301319 0.0188791 0
-0.0325589 0.0166382 0
-0.0347309 0.0142 0
-0.0366285 0.0115643 0
-0.0382289 0.00872931 0
-0.0395051 0.00569303 0
-0.0404245 0.00245526 0
-0.0409485 -0.000979631 0
-0.0410318 -0.00460079 0
-0.0406235 -0.00838852 0
-0.039668 -0.0123069 0
-0.0381104 -0.0162978 0
-0.0359028 -0.0202735 0
-0.0330156 -0.0241064 0
-0.0294518 -0.0276145 0
-0.025265 -0.0305421 0
-0.0205793 -0.0325323 0
-0.0156078 -0.0330983 0
-0.0106646 -0.031608 0
-0.00616628 -0.0273178 0
-0.00261767 -0.0195086 0
-0.000574323 -0.00775345 0
-0.000523874 0.00801225 0
-0.00227077 0.0190749 0
-0.00512062 0.0257606 0
-0.00856478 0.0291263 0
-0.012255 0.0302757 0
-0.0159794 0.0300778 0
-0.0196189 0.0290932 0
-0.0231093 0.0276318 0
-0.0264142 0.0258454 0
-0.0295109 0.0238024 0
-0.0323827 0.0215318 0
-0.0350149 0.0190446 0
-0.0373925 0.0163432 0
-0.0394984 0.0134245 0
-0.0413114 0.0102824 0
-0.0428044 0.00690908 0
-0.0439426 0.00329696 0
-0.0446822 -0.000557828 0
-0.0449689 -0.00465247 0
-0.0447385 -0.00897571 0
-0.0439167 -0.0134969 0
-0.0424248 -0.0181573 0
-0.0401879 -0.0228585 0
-0.037149 -0.0274474 0
-0.0332899 -0.0316965 0
-0.0286563 -0.0352805 0
-0.0233872 -0.0377487 0
-0.0177385 -0.038502 0
-0.0120956 -0.0367904 0
-0.00696426 -0.031765 0
-0.0029378 -0.0226364 0
-0.000639486 -0.00896726 0
-0.000570313 0.00910643 0
-0.00246874 0.0216261 0
-0.00555804 0.0291486 0
-0.00928059 0.0329049 0
-0.0132577 0.0341644 0
-0.0172618 0.0339175 0
-0.0211675 0.0327989 0
-0.0249093 0.0311582 0
-0.0284525 0.029167 0
-0.0317773 0.0269024 0
-0.0348708 0.0243972 0
-0.0377229 0.0216635 0
-0.040323 0.0187021 0
-0.0426582 0.0155067 0
-0.0447107 0.0120657 0
-0.0464551 0.00836331 0
-0.0478563 0.00438214 0
-0.048866 0.000106233 0
-0.0494215 -0.00447426 0
-0.0494435 -0.00936236 0
-0.0488359 -0.0145396 0
-0.0474893 -0.0199531 0
-0.0452913 -0.0254977 0
-0.0421443 -0.030994 0
-0.0379936 -0.0361598 0
-0.0328646 -0.0405797 0
-0.0269054 -0.0436777 0
-0.0204233 -0.0447039 0
-0.0138986 -0.0427561 0
-0.00796249 -0.0368667 0
-0.00333202 -0.0261917 0
-0.000717809 -0.0103246 0
-0.000624293 0.010301 0
-0.0026977 0.0244033 0
-0.00606105 0.0328241 0
-0.0100986 0.0369896 0
-0.0143962 0.0383545 0
-0.0187085 0.0380436 0
-0.0229033 0.0367733 0
-0.0269144 0.0349367 0
-0.0307095 0.0327268 0
-0.0342733 0.0302311 0
-0.0375984 0.0274871 0
-0.0406806 0.0245079 0
-0.043516 0.0212932 0
-0.0460982 0.0178329 0
-0.0484151 0.0141088 0
-0.050446 0.0100956 0
-0.0521581 0.00576297 0
-0.0535015 0.00107856 0
-0.0544063 -0.00398626 0
-0.0547786 -0.00945604 0
-0.0544974 -0.0153348 0
-0.0534159 -0.021586 0
-0.0513717 -0.028107 0
-0.0482082 -0.0346952 0
-0.0438112 -0.0410063 0
-0.0381622 -0.0465111 0
-0.0314031 -0.0504646 0
-0.0238944 -0.0519079 0
-0.016241 -0.04973 0
-0.0092539 -0.0428161 0
-0.00383413 -0.0302926 0
-0.000814821 -0.0118572 0
-0.000687461 0.0116128 0
-0.00296402 0.0274415 0
-0.00664202 0.0368272 0
-0.0110363 0.0414183 0
-0.0156911 0.0428783 0
-0.0203409 0.0424818 0
-0.0248466 0.0410356 0
-0.0291419 0.0389808 0
-0.0331985 0.0365344 0
-0.0370068 0.0337957 0
-0.0405669 0.0308077 0
-0.043883 0.0275856 0
-0.0469601 0.024128 0
-0.0498009 0.020421 0
-0.0524026 0.0164393 0
-0.054753 0.0121465 0
-0.0568255 0.00749657 0
-0.0585734 0.00243631 0
-0.0599236 -0.00308903 0
-0.0607701 -0.00913445 0
-0.0609672 -0.0157406 0
-0.0603255 -0.0229035 0
-0.0586192 -0.0305399 0
-0.0556092 -0.0384358 0
-0.0510882 -0.0461837 0
-0.0449537 -0.0531171 0
-0.0373046 -0.0582668 0
-0.0285407 -0.0603784 0
-0.0194201 -0.0580333 0
-0.0110137 -0.0499064 0
-0.00451202 -0.0351237 0
-0.000942671 -0.0136147 0
-0.000762192 0.0130624 0
-0.00327673 0.0307829 0
-0.00731832 0.0412053 0
-0.0121178 0.046234 0
-0.0171705 0.0477701 0
-0.0221881 0.0472573 0
-0.0270245 0.0456023 0
-0.0316149 0.0432998 0
-0.0359363 0.0405934 0
-0.0399875 0.0375962 0
-0.0437781 0.0343579 0
-0.0473229 0.0308963 0
-0.0506386 0.0272101 0
-0.0537406 0.0232818 0
-0.0566392 0.0190789 0
-0.0593354 0.0145535 0
-0.0618152 0.00964181 0
-0.0640418 0.0042656 0
-0.0659463 -0.0016636 0
-0.0674182 -0.00824146 0
-0.0682919 -0.0155627 0
-0.068335 -0.0236801 0
-0.0672477 -0.0325569 0
-0.0646819 -0.0419946 0
-0.060291 -0.0515368 0
-0.0538239 -0.0603656 0
-0.0452652 -0.0672261 0
-0.0350025 -0.0704457 0
-0.0239583 -0.0681307 0
-0.0135705 -0.0586033 0
-0.00550212 -0.0409968 0
-0.00112784 -0.0156852 0
-0.000851953 0.0146766 0
-0.00364881 0.0344802 0
-0.00811447 0.0460153 0
-0.0133767 0.0514857 0
-0.0188727 0.0530671 0
-0.0242889 0.0523941 0
-0.029473 0.050486 0
-0.0343634 0.0478967 0
-0.0389454 0.0448999 0
-0.0432283 0.0416238 0
-0.047234 0.0381264 0
-0.0509907 0.0344293 0
-0.0545298 0.0305319 0
-0.0578825 0.0264146 0
-0.0610766 0.0220388 0
-0.0641323 0.0173455 0
-0.067056 0.0122532 0
-0.0698311 0.00665591 0
-0.0724053 0.000424843 0
-0.0746762 -0.00658709 0
-0.0764723 -0.0145473 0
-0.0775273 -0.0235973 0
-0.0774645 -0.0337898 0
-0.0758014 -0.0449907 0
-0.0719949 -0.0567381 0
-0.0655507 -0.0680756 0
-0.0562168 -0.0774087 0
-0.0442541 -0.0824886 0
-0.0307086 -0.0806775 0
-0.0175017 -0.0696512 0
-0.00706183 -0.0484573 0
-0.00142391 -0.0182369 0
-0.000961866 0.0164904 0
-0.00409913 0.0386005 0
-0.00906543 0.051327 0
-0.0148598 0.0572307 0
-0.0208503 0.0588085 0
-0.0266957 0.0579143 0
-0.0322395 0.0556938 0
-0.0374268 0.0527666 0
-0.0422545 0.0494397 0
-0.0467459 0.0458584 0
-0.050938 0.0420896 0
-0.0548753 0.0381601 0
-0.0586064 0.0340713 0
-0.0621816 0.0298031 0
-0.0656506 0.0253134 0
-0.069059 0.0205351 0
-0.0724427 0.015371 0
-0.0758182 0.00968871 0
-0.0791683 0.0033163 0
-0.0824197 -0.00395616 0
-0.0854184 -0.0123835 0
-0.0878886 -0.0222357 0
-0.0893875 -0.0337154 0
-0.0892815 -0.0468343 0
-0.0867681 -0.0612144 0
-0.0809877 -0.0758239 0
-0.0712737 -0.0887082 0
-0.0575603 -0.0968652 0
-0.0408797 -0.096527 0
-0.0237038 -0.0841844 0
-0.00962632 -0.0584415 0
-0.00192808 -0.0215889 0
-0.00109964 0.0185519 0
-0.00465548 0.0432321 0
-0.0102214 0.0572276 0
-0.0166326 0.0635358 0
-0.0231745 0.0650358 0
-0.0294778 0.0638357 0
-0.0353856 0.0612239 0
-0.0408549 0.057893 0
-0.0458995 0.0541856 0
-0.0505609 0.0502652 0
-0.0548944 0.0462084 0
-0.0589632 0.0420475 0
-0.0628354 0.0377873 0
-0.0665827 0.0334097 0
-0.07028 0.0288731 0
-0.0740037 0.0241075 0
-0.0778284 0.0190069 0
-0.0818188 0.0134188 0
-0.0860142 0.00713176 0
-0.0904009 -0.000133529 0
-0.0948768 -0.00873158 0
-0.0991947 -0.0190995 0
-0.102877 -0.0316704 0
-0.105139 -0.0467232 0
-0.104864 -0.0641141 0
-0.100696 -0.0828723 0
-0.0913431 -0.100727 0
-0.076136 -0.113767 0
-0.0558215 -0.11662 0
-0.0333329 -0.103756 0
-0.0138316 -0.0724491 0
-0.00279706 -0.0263141 0
-0.00127715 0.0209287 0
-0.00535941 0.0484934 0
-0.0116548 0.0638275 0
-0.0187862 0.0704785 0
-0.0259414 0.0717902 0
-0.0327248 0.0701681 0
-0.0389873 0.0670619 0
-0.0447067 0.0632437 0
-0.0499206 0.0590934 0
-0.0546938 0.0547921 0
-0.0591038 0.050425 0
-0.0632341 0.04603 0
-0.0671733 0.0416161 0
-0.0710152 0.0371701 0
-0.0748607 0.0326556 0
-0.07882 0.028008 0
-0.0830128 0.0231239 0
-0.0875649 0.0178442 0
-0.0925944 0.0119313 0
-0.0981831 0.00504228 0
-0.10432 -0.00329441 0
-0.110832 -0.0137068 0
-0.117259 -0.0269543 0
-0.122692 -0.043744 0
-0.125679 -0.0643812 0
-0.124276 -0.0881756 0
-0.116378 -0.112675 0
-0.100417 -0.132987 0
-0.0764508 -0.141681 0
-0.047505 -0.13013 0
-0.0204581 -0.092623 0
-0.00426084 -0.033372 0
-0.00151303 0.0237189 0
-0.00627384 0.0545463 0
-0.0134706 0.0712668 0
-0.0214464 0.0781465 0
-0.029276 0.079107 0
-0.0365464 0.0769051 0
-0.043131 0.073172 0
-0.0490416 0.0687636 0
-0.0543498 0.0640957 0
-0.0591505 0.0593638 0
-0.0635463 0.0546591 0
-0.0676425 0.0500225 0
-0.071547 0.0454673 0
-0.0753732 0.040987 0
-0.0792455 0.0365564 0
-0.0833052 0.0321261 0
-0.087717 0.0276104 0
-0.0926719 0.0228646 0
-0.0983806 0.0176491 0
-0.105045 0.0115779 0
-0.112795 0.00405656 0
-0.121569 -0.0057712 0
-0.130975 -0.0190572 0
-0.140061 -0.037122 0
-0.147096 -0.0609812 0
-0.14956 -0.0905142 0
-0.144467 -0.123328 0
-0.129124 -0.153639 0
-0.102422 -0.171697 0
-0.0667586 -0.164723 0
-0.0302778 -0.121557 0
-0.00663994 -0.0442727 0
-0.0018373 0.0270692 0
-0.00749513 0.0616146 0
-0.0158197 0.0797198 0
-0.0247808 0.0866305 0
-0.0333305 0.0870023 0
-0.0410598 0.0840094 0
-0.0478904 0.0794828 0
-0.0538886 0.0743615 0
-0.0591736 0.0690909 0
-0.0638778 0.0638735 0
-0.0681323 0.0587997 0
-0.0720634 0.0539092 0
-0.0757949 0.0492166 0
-0.0794541 0.0447231 0
-0.0831801 0.0404185 0
-0.0871347 0.0362783 0
-0.0915152 0.0322505 0
-0.0965655 0.0282298 0
-0.10258 0.024007 0
-0.109883 0.0191874 0
-0.118762 0.0130754 0
-0.129329 0.00455155 0
-0.141306 -0.0079961 0
-0.153804 -0.0265993 0
-0.165019 -0.053254 0
-0.172058 -0.0887386 0
-0.171188 -0.131066 0
-0.158535 -0.173897 0
-0.131366 -0.20531 0
-0.0904208 -0.207719 0
-0.0438036 -0.16166 0
-0.0103495 -0.0612622 0
-0.00229935 0.0312059 0
-0.00917145 0.0700079 0
-0.0189134 0.089393 0
-0.0289973 0.0960023 0
-0.0382604 0.0954432 0
-0.0463442 0.0913816 0
-0.0532615 0.0858586 0
-0.0591629 0.0798854 0
-0.0642325 0.0739217 0
-0.0686488 0.0681632 0
-0.0725731 0.0626888 0
-0.0761502 0.0575282 0
-0.0795137 0.0526926 0
-0.0827948 0.0481874 0
-0.0861329 0.0440184 0
-0.0896902 0.0401904 0
-0.0936684 0.0366971 0
-0.0983279 0.0334932 0
-0.104002 0.0304326 0
-0.111094 0.0271565 0
-0.120026 0.0229173 0
-0.131112 0.0163625 0
-0.144321 0.00537911 0
-0.158971 -0.0128258 0
-0.173484 -0.0412999 0
-0.185055 -0.0820827 0
-0.18961 -0.134036 0
-0.18229 -0.1909 0
-0.158448 -0.239319 0
-0.11601 -0.257094 0
-0.0608675 -0.214044 0
-0.0157938 -0.0874054 0
-0.00298226 0.0364875 0
-0.0115302 0.0801463 0
-0.0230324 0.100499 0
-0.0343114 0.10626 0
-0.0441455 0.104283 0
-0.0523173 0.0987973 0
-0.058999 0.0920419 0
-0.064466 0.0850705 0
-0.068988 0.0783283 0
-0.0727972 0.0719821 0
-0.0760853 0.0660823 0
-0.0790108 0.0606372 0
-0.0817087 0.055645 0
-0.0843015 0.0511089 0
-0.0869113 0.0470448 0
-0.0896734 0.0434833 0
-0.0927541 0.0404631 0
-0.0963725 0.038005 0
-0.100823 0.0360459 0
-0.106494 0.0343057 0
-0.113854 0.0320608 0
-0.12339 0.0278399 0
-0.135425 0.0191453 0
-0.149811 0.00244471 0
-0.16558 -0.026289 0
-0.18057 -0.070532 0
-0.19108 -0.130522 0
-0.191829 -0.200986 0
-0.176341 -0.268562 0
-0.138745 -0.307885 0
-0.0799549 -0.277186 0
-0.0230467 -0.126246 0
-0.00402923 0.043499 0
-0.0149157 0.0925693 0
-0.0285045 0.113166 0
-0.0408306 0.117197 0
-0.0507792 0.113129 0
-0.0584399 0.105784 0
-0.0642468 0.0975435 0
-0.068651 0.08944 0
-0.072028 0.0818578 0
-0.0746679 0.0749018 0
-0.0767897 0.0685725 0
-0.0785588 0.0628415 0
-0.0801029 0.0576826 0
-0.0815247 0.053086 0
-0.0829127 0.0490656 0
-0.0843522 0.045664 0
-0.0859371 0.0429482 0
-0.0877879 0.0409891 0
-0.0900756 0.0398002 0
-0.0930557 0.0392019 0
-0.0971079 0.0385774 0
-0.102765 0.0365156 0
-0.110685 0.030425 0
-0.12148 0.0163459 0
-0.135257 -0.0106441 0
-0.151181 -0.0552634 0
-0.16684 -0.11962 0
-0.177529 -0.20045 0
-0.175688 -0.286427 0
-0.151316 -0.351988 0
-0.0974856 -0.345704 0
-0.0314146 -0.180707 0
-0.00569061 0.0532188 0
-0.0198233 0.107869 0
-0.0355756 0.127208 0
-0.0482225 0.128128 0
-0.0571588 0.121082 0
-0.0630649 0.111398 0
-0.0667731 0.101445 0
-0.0689614 0.0921306 0
-0.0701229 0.0837057 0
-0.0706011 0.076172 0
-0.0706326 0.0694556 0
-0.0703807 0.0634757 0
-0.0699585 0.0581703 0
-0.0694428 0.0535043 0
-0.0688826 0.0494752 0
-0.0683054 0.0461166 0
-0.067721 0.0434961 0
-0.067129 0.0417 0
-0.0665346 0.0407826 0
-0.0659848 0.0406498 0
-0.0656381 0.0408348 0
-0.0658724 0.0401494 0
-0.0674178 0.0362567 0
-0.0714404 0.0253318 0
-0.0794189 0.00212568 0
-0.0924992 -0.0390294 0
-0.110487 -0.102207 0
-0.13074 -0.186921 0
-0.146323 -0.286214 0
-0.14413 -0.378766 0
-0.107355 -0.409531 0
-0.0390925 -0.251214 0
-0.00838665 0.0672961 0