# vtk DataFile Version 2.0
Lid-driven cavity
ASCII
DATASET STRUCTURED_POINTS
DIMENSIONS 32 32 1
ORIGIN 0.015625 0.015625 0
SPACING 0.03125 0.03125 1
POINT_DATA 1024
SCALARS pressure double 1
LOOKUP_TABLE default
20.9484
20.8478
20.6867
20.5219
20.3857
20.2933
20.2513
20.2639
20.3356
20.4724
20.681
20.9679
21.3371
21.7885
22.3164
22.9077
23.5418
24.1912
24.8204
25.3894
25.8584
26.1935
26.3722
26.3881
26.2535
25.9985
25.6664
25.3086
24.9777
24.7214
24.5771
24.5578
21.049
20.9445
20.8126
20.6848
20.5812
20.5129
20.486
20.5054
20.5759
20.7037
20.8952
21.1563
21.4909
21.8993
22.3766
22.9115
23.4855
24.0745
24.6461
25.164
25.5917
25.8987
26.0648
26.0856
25.9734
25.7565
25.4751
25.1734
24.8956
24.6794
24.5542
24.5384
21.2155
21.0682
20.9317
20.817
20.7309
20.677
20.6577
20.6765
20.7379
20.8484
21.0149
21.2443
21.5418
21.9096
22.3449
22.8387
23.375
23.9311
24.476
24.9737
25.3879
25.6871
25.8508
25.8736
25.7679
25.562
25.2956
25.0119
24.7505
24.5449
24.4201
24.3959
21.3837
21.1774
21.0185
20.9012
20.8195
20.7688
20.7468
20.7547
20.7965
20.8791
21.0109
21.2006
21.4562
21.7827
22.1806
22.6441
23.1595
23.7045
24.2482
24.7532
25.1805
25.495
25.6724
25.7045
25.6018
25.393
25.119
24.8247
24.551
24.3294
24.1839
24.1326
21.4981
21.2284
21.039
20.9089
20.8206
20.7613
20.7243
20.7084
20.7174
20.7588
20.8432
20.9821
21.1871
21.4671
21.8271
22.265
22.7707
23.3213
23.8858
24.4247
24.8944
25.2536
25.471
25.5318
25.4423
25.2296
24.9366
24.6121
24.3016
24.0402
23.8531
23.7585
21.5084
21.1761
20.9533
20.8039
20.6992
20.6193
20.5535
20.4987
20.4585
20.4421
20.4624
20.5346
20.6748
20.8968
21.2109
21.6203
22.1195
22.6864
23.2908
23.8909
24.4374
24.88
25.1767
25.3014
25.2514
25.0487
24.7367
24.3702
24.0032
23.6795
23.4302
23.2776
21.3661
20.9748
20.7182
20.5447
20.4145
20.3016
20.1915
20.08
19.9713
19.8759
19.81
19.7931
19.8462
19.9896
20.2399
20.607
21.092
21.6776
22.3362
23.0249
23.688
24.2642
24.6958
24.9395
24.976
24.8164
24.501
24.0903
23.6513
23.2432
22.9101
22.6839
21.0242
20.579
20.2893
20.0871
19.9223
19.7626
19.591
19.4023
19.2012
19.0003
18.819
18.6816
18.6151
18.6471
18.8023
19.0995
19.5482
20.142
20.8606
21.6621
22.4856
23.2567
23.8973
24.3389
24.5363
24.4792
24.1974
23.7549
23.2355
22.7222
22.2821
21.9625
20.4379
19.9453
19.6231
19.3873
19.1775
18.9561
18.7032
18.4131
18.0908
17.7511
17.4165
17.1164
16.8848
16.7578
16.7704
16.9527
17.3253
17.899
18.6689
19.5991
20.6256
21.6608
22.6022
23.3475
23.813
23.9528
23.7729
23.334
22.7378
22.1012
21.5273
21.0896
19.5668
19.034
18.6798
18.4045
18.1381
17.8378
17.4812
17.0614
16.5838
16.0645
15.5293
15.0126
14.5562
14.2063
14.0106
14.0135
14.2504
14.7518
15.5432
16.6013
17.8645
19.2338
20.5803
21.7603
22.6376
23.1115
23.1447
22.7788
22.1304
21.3595
20.6229
20.0362
18.3775
17.8128
17.4265
17.1047
16.7686
16.3704
15.8849
15.3037
14.6315
13.8851
13.093
12.2947
11.5401
10.8873
10.3992
10.1384
10.1606
10.511
11.2662
12.4262
13.9394
15.7017
17.5593
19.3222
20.7884
21.781
22.1911
22.016
21.373
20.4711
19.5427
18.769
16.8465
16.2592
15.8406
15.4646
15.0446
14.5281
13.887
13.1101
12.2007
11.1753
10.0638
8.91063
7.77415
6.72549
5.84522
5.21786
4.92376
5.02904
5.65643
6.85862
8.60368
10.7914
13.2505
15.7453
17.9997
19.7383
20.7475
20.9418
20.4098
19.4052
18.26
17.2543
14.9636
14.3634
13.9124
13.4743
12.9565
12.3019
11.4787
10.4724
9.28341
7.92637
6.43193
4.84825
3.24211
1.6984
0.317339
-0.791475
-1.51858
-1.76812
-1.38892
-0.240651
1.67632
4.27958
7.39322
10.7459
13.9863
16.7254
18.6093
19.4196
19.1675
18.1279
16.7513
15.4627
12.7332
12.1307
11.6475
11.141
10.5133
9.70345
8.67541
7.4104
5.9044
4.16898
2.23386
0.1499
-2.00844
-4.14245
-6.13127
-7.83777
-9.1191
-9.84222
-9.84759
-8.88334
-6.90048
-3.94746
-0.185325
4.09787
8.48856
12.4796
15.5482
17.2861
17.5567
16.6045
15.0025
13.3763
10.1758
9.58144
9.06799
8.48942
7.74439
6.76823
5.5203
3.9765
2.1273
-0.0204099
-2.4394
-5.07758
-7.85407
-10.6572
-13.3457
-15.754
-17.7035
-19.0183
-19.5353
-18.9091
-17.0089
-13.8332
-9.50501
-4.30056
1.33187
6.78201
11.3445
14.3677
15.479
14.8064
13.0176
10.9979
7.32693
6.75091
6.21137
5.562
4.69943
3.55556
2.08485
0.257039
-1.94409
-4.51769
-7.44054
-10.661
-14.0934
-17.6148
-21.0651
-24.2516
-26.9605
-28.9737
-30.0942
-29.9641
-28.324
-25.1074
-20.3772
-14.363
-7.50558
-0.480625
5.83582
10.5121
12.845
12.7218
10.8318
8.36517
4.23438
3.68608
3.12773
2.41573
1.44575
0.146321
-1.53347
-3.63079
-6.16951
-9.15601
-12.5724
-16.369
-20.4573
-24.7054
-28.9368
-32.9347
-36.4529
-39.2335
-41.0329
-41.5194
-40.3177
-37.2758
-32.3775
-25.7704
-17.8349
-9.25211
-1.02365
5.63394
9.60222
10.3755
8.5297
5.57042
0.954116
0.441166
-0.124857
-0.8824
-1.93635
-3.36216
-5.21697
-7.54578
-10.381
-13.737
-17.6025
-21.9308
-26.6324
-31.5688
-36.5503
-41.3403
-45.6652
-49.2322
-51.7533
-52.9216
-52.305
-49.6556
-44.8633
-37.965
-29.2264
-19.2568
-9.10456
-0.231435
5.77721
7.85785
6.27234
2.78794
-2.45574
-2.92848
-3.48662
-4.26171
-5.36008
-6.86304
-8.83583
-11.3326
-14.3953
-18.047
-22.2833
-27.0617
-32.2928
-37.8334
-43.4843
-48.9937
-54.0674
-58.3856
-61.6257
-63.4825
-63.5333
-61.4587
-57.0423
-50.1954
-41.0234
-29.982
-18.0594
-6.87304
1.52596
5.36621
4.33527
0.315192
-5.94194
-6.37363
-6.90337
-7.65502
-8.73935
-10.2478
-12.2571
-14.8331
-18.0283
-21.8749
-26.3756
-31.4919
-37.1351
-43.1592
-49.358
-55.4693
-61.1847
-66.1671
-70.0725
-72.5736
-73.3016
-71.9092
-68.0864
-61.6136
-52.4103
-40.7068
-27.3116
-13.8633
-2.81098
3.26061
3.16481
-1.36464
-9.46388
-9.85923
-10.3342
-11.0057
-11.9955
-13.4133
-15.3535
-17.8972
-21.1089
-25.0303
-29.67
-34.993
-40.9108
-47.2754
-53.8759
-60.443
-66.66
-72.1802
-76.649
-79.7238
-81.074
-80.3716
-77.2651
-71.4054
-62.5244
-50.5795
-36.0872
-20.5434
-6.65885
2.1324
3.45874
-1.48699
-13.0025
-13.3734
-13.7591
-14.2737
-15.0627
-16.2674
-18.01
-20.3917
-23.4909
-27.3578
-32.0052
-37.3987
-43.4495
-50.0071
-56.8575
-63.7274
-70.2959
-76.2124
-81.1187
-84.6693
-86.5445
-86.4563
-84.0647
-78.923
-70.5888
-58.7319
-43.4895
-26.0443
-9.17568
2.8811
6.2769
1.13485
-16.5714
-16.938
-17.187
-17.4403
-17.8904
-18.7318
-20.1281
-22.207
-25.0617
-28.7481
-33.2801
-38.6229
-44.6837
-51.3074
-58.2753
-65.3108
-72.0912
-78.2657
-83.478
-87.3859
-89.6712
-90.0636
-88.2595
-83.7797
-76.0283
-64.3986
-48.5999
-29.3443
-9.24714
6.78812
13.1799
8.3033
-20.2333
-20.6245
-20.6645
-20.5108
-20.4433
-20.7416
-21.6284
-23.2646
-25.7573
-29.1636
-33.4926
-38.7012
-44.6879
-51.2892
-58.2798
-65.3786
-72.2611
-78.5778
-83.9753
-88.1161
-90.6875
-91.4
-89.937
-85.8754
-78.5286
-67.0018
-50.5723
-29.3454
-5.51464
15.5687
26.3825
22.6819
-24.1319
-24.5787
-24.2876
-23.5154
-22.6973
-22.2428
-22.4519
-23.5165
-25.5505
-28.6041
-32.673
-37.6983
-43.5643
-50.0949
-57.0557
-64.1595
-71.0793
-77.4653
-82.965
-87.2415
-89.9817
-90.8811
-89.553
-85.5098
-78.0341
-66.1635
-48.6824
-24.9403
3.56945
31.3797
48.8922
48.0821
-28.5588
-29.0706
-28.2213
-26.5088
-24.6327
-23.1828
-22.547
-22.9321
-24.4437
-27.1104
-30.9021
-35.7357
-41.4746
-47.9265
-54.8452
-61.9364
-68.8686
-75.2892
-80.8421
-85.1826
-87.9838
-88.9264
-87.5481
-83.2144
-75.0726
-61.9034
-42.3163
-15.0334
19.6807
56.7606
84.5907
89.7761
-34.108
-34.5912
-32.7302
-29.5651
-26.2217
-23.5062
-21.8738
-21.5108
-22.4827
-24.7741
-28.3145
-32.987
-38.6282
-45.0266
-51.9224
-59.0127
-65.9604
-72.4071
-77.9874
-82.3393
-85.1069
-85.9276
-84.3087
-79.3676
-70.0073
-54.6724
-31.4444
1.48212
44.5772
94.4809
138.19
154.83
-42.0481
-42.0408
-38.2089
-32.7462
-27.3922
-23.1308
-20.3931
-19.272
-19.7439
-21.7208
-25.0758
-29.6498
-35.2489
-41.6402
-48.5499
-55.6658
-62.6439
-69.1179
-74.7082
-79.0269
-81.6728
-82.2113
-80.1213
-74.2254
-63.0553
-44.6077
-16.2829
24.6692
79.9364
147.239
214.923
252.463
-55.2516
-53.0195
-45.1042
-35.9397
-27.8945
-21.8528
-17.9932
-16.1903
-16.2728
-18.0486
-21.3212
-25.8846
-31.5135
-37.9542
-44.9193
-52.0881
-59.1097
-65.6084
-71.1873
-75.4262
-77.8675
-77.985
-75.1278
-67.9186
-54.3391
-31.8317
3.0247
54.2241
125.412
217.179
319.623
394.397
-80.5269
-69.7868
-53.1805
-38.2096
-26.8714
-19.0372
-14.2239
-11.977
-11.9031
-13.68
-17.0348
-21.7165
-27.4725
-34.0329
-41.1011
-48.351
-55.4268
-61.9443
-67.4886
-71.6038
-73.7672
-73.3414
-69.4927
-60.6028
-44.1349
-16.9283
25.3494
88.2664
178.449
302.195
457.165
594.642
-133.581
-91.7354
-58.2379
-35.7169
-21.3681
-12.5903
-7.71523
-5.74476
-6.05785
-8.23664
-11.9674
-16.9815
-23.02
-29.8119
-37.0629
-44.4494
-51.6167
-58.1768
-63.7001
-67.6976
-69.5829
-68.6026
-63.7221
-53.0223
-33.7199
-2.14882
46.8419
120.518
229.604
391.296
630.786
919.626
-264.302
-98.4885
-40.5384
-16.7887
-5.26623
0.65294
3.25793
3.50099
1.86994
-1.32782
-5.85664
-11.502
-18.0433
-25.2379
-32.813
-40.4616
-47.8406
-54.5669
-60.2075
-64.2565
-66.0891
-64.8745
-59.4095
-47.7083
-26.9689
6.68636
58.794
137.663
257.401
447.883
789.557
1492.48
VECTORS velocity double
8.11571e-05 -8.11571e-05 0
0.000162939 -6.25105e-07 0
2.44294e-05 0.000139135 0
-0.000381142 0.000266436 0
-0.0010115 0.000363921 0
-0.0018103 0.000434881 0
-0.00273207 0.000486884 0
-0.00374414 0.000525194 0
-0.00482049 0.000551156 0
-0.00593443 0.000562782 0
-0.00705324 0.000556026 0
-0.00813536 0.00052609 0
-0.00912998 0.000468533 0
-0.00997873 0.000380217 0
-0.0106191 0.000260129 0
-0.0109893 0.000110098 0
-0.0110347 -6.47281e-05 0
-0.0107141 -0.000255883 0
-0.0100087 -0.000449525 0
-0.00893101 -0.000628119 0
-0.00753065 -0.000772245 0
-0.00589522 -0.000863182 0
-0.00414593 -0.000886113 0
-0.00242636 -0.000833451 0
-0.000885399 -0.000707514 0
0.000343805 -0.000521691 0
0.00116523 -0.00029973 0
0.00153662 -7.1666e-05 0
0.00148042 0.000127871 0
0.00109208 0.000260468 0
0.000551911 0.000279698 0
0.000136106 0.000136106 0
-2.89452e-06 -0.00015942 0
-0.000256615 0.000249576 0
-0.0010656 0.000836433 0
-0.00246232 0.00137142 0
-0.0043647 0.00179167 0
-0.00666274 0.00210396 0
-0.00925491 0.00233175 0
-0.0120541 0.00249159 0
-0.0149795 0.00258654 0
-0.017946 0.00260784 0
-0.020856 0.00253972 0
-0.0235959 0.00236446 0
-0.026038 0.00206685 0
-0.0280452 0.00163783 0
-0.0294799 0.00107761 0
-0.0302151 0.000398028 0
-0.0301465 -0.000375884 0
-0.029207 -0.00120482 0
-0.0273808 -0.00203216 0
-0.0247154 -0.00278854 0
-0.0213292 -0.0033984 0
-0.0174125 -0.00378919 0
-0.0132191 -0.00390275 0
-0.009048 -0.0037075 0
-0.00521338 -0.00320905 0
-0.00200658 -0.00245616 0
0.000346695 -0.00153996 0
0.00172842 -0.000584558 0
0.00215914 0.000266249 0
0.00181386 0.000855709 0
0.00102572 0.00101277 0
0.000286174 0.000558387 0
-0.000182213 2.56879e-05 0
-0.00100574 0.00114172 0
-0.00273522 0.00248277 0
-0.00529345 0.00368003 0
-0.0085362 0.00462819 0
-0.0123093 0.00533858 0
-0.0164711 0.00585108 0
-0.0208918 0.0061922 0
-0.0254436 0.00636311 0
-0.0299892 0.00634339 0
-0.0343759 0.00610074 0
-0.038434 0.0056015 0
-0.0419818 0.00481967 0
-0.0448338 0.00374423 0
-0.0468125 0.00238471 0
-0.0477617 0.000775302 0
-0.0475609 -0.00102256 0
-0.0461404 -0.00291814 0
-0.0434943 -0.00479115 0
-0.0396917 -0.00649757 0
-0.0348856 -0.00788173 0
-0.0293149 -0.00879325 0
-0.0232985 -0.0091085 0
-0.0172169 -0.00875445 0
-0.0114821 -0.00773153 0
-0.00649268 -0.00612986 0
-0.00257935 -0.00413287 0
5.24809e-05 -0.00200521 0
0.0013736 -6.49347e-05 0
0.0015624 0.00134336 0
0.00100691 0.00186874 0
0.000302152 0.00114671 0
-0.000398101 0.000606002 0
-0.0018996 0.00288642 0
-0.00468889 0.00525684 0
-0.00851846 0.00729377 0
-0.0131531 0.00889188 0
-0.0183888 0.0100836 0
-0.0240489 0.0109279 0
-0.0299705 0.0114578 0
-0.035989 0.0116678 0
-0.0419271 0.0115225 0
-0.0475914 0.0109725 0
-0.0527738 0.00997031 0
-0.0572594 0.00848422 0
-0.0608361 0.00650849 0
-0.0633077 0.00407079 0
-0.0645065 0.00123716 0
-0.0643066 -0.00188509 0
-0.0626355 -0.00514722 0
-0.0594839 -0.00835982 0
-0.0549182 -0.0112972 0
-0.0490923 -0.013714 0
-0.042255 -0.0153689 0
-0.0347488 -0.0160555 0
-0.0269987 -0.0156392 0
-0.0194848 -0.0140954 0
-0.012698 -0.0115421 0
-0.00707664 -0.00825533 0
-0.00293324 -0.00465798 0
-0.000385731 -0.00128079 0
0.000691793 0.00129289 0
0.000687764 0.00247874 0
0.000240187 0.00168905 0
-0.000627873 0.00163198 0
-0.00285159 0.00558566 0
-0.00675986 0.00925516 0
-0.0119043 0.0122694 0
-0.0179409 0.0145875 0
-0.0246102 0.0162929 0
-0.0317038 0.0174723 0
-0.0390333 0.0181646 0
-0.0464087 0.0183548 0
-0.0536265 0.0179914 0
-0.0604677 0.0170091 0
-0.0667023 0.0153508 0
-0.0720974 0.0129845 0
-0.0764282 0.00991575 0
-0.0794886 0.00619555 0
-0.0811028 0.00192535 0
-0.0811353 -0.00274068 0
-0.0794978 -0.00760022 0
-0.0761571 -0.0123991 0
-0.0711508 -0.0168301 0
-0.064605 -0.0205529 0
-0.0567488 -0.0232236 0
-0.0479219 -0.0245339 0
-0.038572 -0.0242608 0
-0.0292361 -0.0223236 0
-0.0204983 -0.0188385 0
-0.0129224 -0.0141563 0
-0.0069612 -0.00886163 0
-0.00286174 -0.00372412 0
-0.000591696 0.000388645 0
0.000194592 0.00260073 0
0.000139999 0.00206924 0
-0.000860104 0.00311995 0
-0.00381103 0.00927234 0
-0.0088377 0.0145034 0
-0.0152816 0.0186095 0
-0.0226852 0.0216877 0
-0.0307335 0.0239103 0
-0.0391906 0.0254056 0
-0.0478508 0.0262211 0
-0.0565093 0.0263323 0
-0.0649494 0.0256717 0
-0.0729403 0.0241607 0
-0.0802422 0.0217356 0
-0.0866146 0.0183672 0
-0.091825 0.0140741 0
-0.0956578 0.00893043 0
-0.0979233 0.00307009 0
-0.0984646 -0.00331161 0
-0.0971624 -0.00996898 0
-0.0939405 -0.0165929 0
-0.0887856 -0.0227975 0
-0.0817731 -0.0281438 0
-0.0730891 -0.0321729 0
-0.0630482 -0.0344524 0
-0.0521028 -0.0346376 0
-0.0408359 -0.0325496 0
-0.0299287 -0.0282576 0
-0.0200913 -0.0221505 0
-0.0119577 -0.0149623 0
-0.00595643 -0.00772415 0
-0.00219764 -0.00164015 0
-0.000414766 0.00206036 0
2.00949e-05 0.00222933 0
-0.00108555 0.00506561 0
-0.0047373 0.0139294 0
-0.0108333 0.020969 0
-0.0185108 0.0262652 0
-0.0272045 0.0301293 0
-0.036549 0.0328616 0
-0.0462871 0.0346494 0
-0.0562038 0.0355542 0
-0.0660897 0.0355437 0
-0.0757255 0.0345361 0
-0.0848788 0.0324406 0
-0.0933087 0.0291876 0
-0.100771 0.0247502 0
-0.107026 0.0191568 0
-0.111845 0.0124989 0
-0.115013 0.00493523 0
-0.116341 -0.00330771 0
-0.115665 -0.0119503 0
-0.112857 -0.0206425 0
-0.107835 -0.0289247 0
-0.100606 -0.0362571 0
-0.0912949 -0.0420551 0
-0.0801667 -0.0457393 0
-0.0676554 -0.0468074 0
-0.0543718 -0.0449303 0
-0.0410867 -0.0400691 0
-0.0286717 -0.0325912 0
-0.0179824 -0.0233445 0
-0.00969271 -0.0136329 0
-0.00412258 -0.00506031 0
-0.00113101 0.000706074 0
-0.000115838 0.00213359 0
-0.00129447 0.00744563 0
-0.00559088 0.0194975 0
-0.012664 0.02857 0
-0.0214648 0.0351426 0
-0.0313326 0.0398135 0
-0.0418606 0.0430499 0
-0.0527768 0.0451154 0
-0.0638647 0.0460927 0
-0.0749183 0.0459447 0
-0.0857239 0.0445764 0
-0.0960548 0.0418845 0
-0.105673 0.0377918 0
-0.114333 0.0322684 0
-0.121785 0.0253457 0
-0.12778 0.0171232 0
-0.132074 0.00777322 0
-0.134435 -0.00245716 0
-0.134651 -0.0132593 0
-0.132534 -0.0242596 0
-0.127931 -0.0349329 0
-0.120767 -0.0446405 0
-0.111085 -0.052666 0
-0.0990762 -0.0582654 0
-0.0851252 -0.0607435 0
-0.0698379 -0.0595653 0
-0.0540506 -0.0545065 0
-0.0387928 -0.0458267 0
-0.0251729 -0.0344182 0
-0.0141791 -0.0218428 0
-0.00642971 -0.0101699 0
-0.00197802 -0.00162759 0
-0.000271846 0.0017459 0
-0.00147634 0.0102164 0
-0.00633147 0.0258782 0
-0.0142494 0.0371803 0
-0.0240223 0.0451061 0
-0.0349109 0.0506064 0
-0.0464761 0.0543501 0
-0.0584381 0.0566936 0
-0.0705845 0.0577487 0
-0.0827189 0.0574767 0
-0.0946386 0.0557698 0
-0.106127 0.0525105 0
-0.116952 0.0476089 0
-0.126866 0.0410253 0
-0.135609 0.0327838 0
-0.14291 0.0229809 0
-0.148492 0.0117915 0
-0.15208 -0.000526937 0
-0.153413 -0.013639 0
-0.152247 -0.0271631 0
-0.148358 -0.0405223 0
-0.141584 -0.0529885 0
-0.131868 -0.0637164 0
-0.119303 -0.0717889 0
-0.104183 -0.0762903 0
-0.0870637 -0.0764252 0
-0.0688004 -0.071697 0
-0.0505508 -0.0621436 0
-0.0336851 -0.0485869 0
-0.0195678 -0.0327851 0
-0.00922295 -0.0173218 0
-0.00300377 -0.00514653 0
-0.000459581 0.00101448 0
-0.00162036 0.0133131 0
-0.00691925 0.0329356 0
-0.0155118 0.0466334 0
-0.0260677 0.0559819 0
-0.0377866 0.0623381 0
-0.0502058 0.0666027 0
-0.0630429 0.0692401 0
-0.0760929 0.0703986 0
-0.0891729 0.0700411 0
-0.102095 0.068047 0
-0.114654 0.0642814 0
-0.126628 0.0586359 0
-0.137768 0.0510524 0
-0.147805 0.0415375 0
-0.156451 0.0301737 0
-0.163399 0.0171285 0
-0.168336 0.00266147 0
-0.170959 -0.0128709 0
-0.170974 -0.0290827 0
-0.168096 -0.0453699 0
-0.162078 -0.0609332 0
-0.152752 -0.0748135 0
-0.140083 -0.0859259 0
-0.124235 -0.0931206 0
-0.105653 -0.0952967 0
-0.0851443 -0.0915971 0
-0.0639355 -0.081702 0
-0.0436315 -0.0661983 0
-0.0260135 -0.046909 0
-0.0126263 -0.0269301 0
-0.00427021 -0.0101136 0
-0.000693879 -0.000138983 0
-0.00171644 0.0166499 0
-0.00731751 0.0404987 0
-0.0163807 0.056726 0
-0.0274951 0.0675595 0
-0.0398178 0.074802 0
-0.0528689 0.0796091 0
-0.0663652 0.082567 0
-0.0801112 0.0838679 0
-0.0939386 0.0834791 0
-0.107676 0.0812676 0
-0.121133 0.0770779 0
-0.134097 0.0707771 0
-0.146327 0.0622811 0
-0.157552 0.0515707 0
-0.167471 0.0387052 0
-0.175761 0.0238355 0
-0.182085 0.00721539 0
-0.186098 -0.0107887 0
-0.187476 -0.0297721 0
-0.185894 -0.049141 0
-0.18102 -0.0680537 0
-0.172575 -0.0854649 0
-0.160373 -0.100145 0
-0.144406 -0.110716 0
-0.124944 -0.115746 0
-0.102662 -0.113938 0
-0.0787636 -0.104468 0
-0.0550204 -0.0874791 0
-0.0336285 -0.064638 0
-0.0167589 -0.0394578 0
-0.00584383 -0.0168571 0
-0.000991379 -0.00182424 0
-0.00175627 0.0201226 0
-0.0074961 0.0483669 0
-0.0167978 0.0672227 0
-0.0282163 0.0795957 0
-0.0408834 0.0877555 0
-0.0543059 0.0931293 0
-0.0681996 0.0964368 0
-0.0823773 0.0979218 0
-0.0966849 0.0975601 0
-0.110968 0.0952064 0
-0.125054 0.0906827 0
-0.138745 0.0838282 0
-0.151812 0.0745274 0
-0.163993 0.0627293 0
-0.174991 0.048464 0
-0.184482 0.0318586 0
-0.192119 0.0131526 0
-0.197542 -0.0072904 0
-0.200406 -0.0290272 0
-0.200361 -0.0515137 0
-0.197014 -0.0739018 0
-0.189973 -0.0951028 0
-0.178897 -0.113785 0
-0.163566 -0.128375 0
-0.144009 -0.137106 0
-0.120679 -0.13819 0
-0.094636 -0.130157 0
-0.0677059 -0.112463 0
-0.0424429 -0.0863087 0
-0.0217125 -0.0553871 0
-0.00778767 -0.0257677 0
-0.00136908 -0.0041847 0
-0.00173447 0.0236134 0
-0.00743512 0.0563167 0
-0.0167236 0.0778632 0
-0.0281696 0.0918198 0
-0.0408953 0.100924 0
-0.0543962 0.106884 0
-0.068384 0.110564 0
-0.0826768 0.112266 0
-0.097133 0.11198 0
-0.111615 0.109551 0
-0.125971 0.10478 0
-0.140023 0.0974748 0
-0.153563 0.0874886 0
-0.166351 0.0747364 0
-0.178112 0.0592157 0
-0.18854 0.041026 0
-0.197303 0.0203855 0
-0.20405 -0.002354 0
-0.208436 -0.0267133 0
-0.210096 -0.0522124 0
-0.208606 -0.0780411 0
-0.203484 -0.103125 0
-0.19423 -0.126094 0
-0.180389 -0.145237 0
-0.161697 -0.158492 0
-0.13828 -0.163552 0
-0.110926 -0.158191 0
-0.0813597 -0.140925 0
-0.0523732 -0.112096 0
-0.0275319 -0.0751712 0
-0.0101552 -0.037285 0
-0.00184369 -0.00739748 0
-0.00164955 0.0269974 0
-0.0071283 0.0641121 0
-0.0161436 0.0883715 0
-0.0273287 0.103943 0
-0.0398112 0.11401 0
-0.0530751 0.120563 0
-0.0668234 0.12462 0
-0.0808751 0.126553 0
-0.0950983 0.126372 0
-0.109372 0.123916 0
-0.123567 0.118966 0
-0.137533 0.111306 0
-0.151091 0.100757 0
-0.164038 0.0872026 0
-0.176137 0.0706098 0
-0.187127 0.0510491 0
-0.196714 0.0287134 0
-0.204585 0.00393545 0
-0.210405 -0.0227969 0
-0.213828 -0.051046 0
-0.214432 -0.0800933 0
-0.211679 -0.108947 0
-0.204921 -0.136284 0
-0.193466 -0.160343 0
-0.176707 -0.178837 0
-0.154361 -0.188971 0
-0.1268 -0.187687 0
-0.0954672 -0.172329 0
-0.0632049 -0.141941 0
-0.0342004 -0.0991723 0
-0.0129848 -0.0518762 0
-0.00243074 -0.0116719 0
-0.0015047 0.0301516 0
-0.00658562 0.0715175 0
-0.0150734 0.0984691 0
-0.025711 0.115668 0
-0.0376456 0.126702 0
-0.0503488 0.133838 0
-0.0635097 0.138255 0
-0.076943 0.140404 0
-0.0905235 0.140325 0
-0.104147 0.13786 0
-0.117708 0.132777 0
-0.131088 0.12484 0
-0.14415 0.113844 0
-0.156737 0.0996486 0
-0.168669 0.0821959 0
-0.179748 0.0615309 0
-0.189749 0.03782 0
-0.198417 0.0113673 0
-0.205457 -0.017368 0
-0.210568 -0.0479409 0
-0.213377 -0.0797854 0
-0.21332 -0.112066 0
-0.209643 -0.143601 0
-0.201426 -0.172698 0
-0.187704 -0.196962 0
-0.167712 -0.213185 0
-0.141276 -0.217469 0
-0.109349 -0.205806 0
-0.0745907 -0.175485 0
-0.0416306 -0.127593 0
-0.0162956 -0.0700063 0
-0.00314437 -0.017247 0
-0.0013081 0.0329644 0
-0.00583482 0.0783124 0
-0.0135618 0.107889 0
-0.0233823 0.126706 0
-0.0344767 0.138693 0
-0.0463036 0.146377 0
-0.0585336 0.151107 0
-0.0709721 0.153424 0
-0.0834982 0.153411 0
-0.0960237 0.150923 0
-0.10847 0.145722 0
-0.120754 0.137559 0
-0.132785 0.126217 0
-0.144463 0.111539 0
-0.155677 0.0934515 0
-0.166305 0.0719823 0
-0.176212 0.0472759 0
-0.185234 0.0196018 0
-0.193162 -0.0106348 0
-0.199763 -0.0429616 0
-0.204726 -0.0769928 0
-0.207525 -0.112117 0
-0.207349 -0.147404 0
-0.203095 -0.181367 0
-0.19345 -0.211659 0
-0.177128 -0.234803 0
-0.153292 -0.246124 0
-0.122208 -0.240161 0
-0.0860658 -0.212032 0
-0.0496633 -0.160408 0
-0.020086 -0.0921032 0
-0.00399798 -0.0243894 0
-0.00107281 0.0353453 0
-0.00492155 0.0843069 0
-0.0116921 0.116392 0
-0.0204593 0.136791 0
-0.0304492 0.149692 0
-0.0411089 0.157865 0
-0.0520871 0.162828 0
-0.0631769 0.165231 0
-0.0742598 0.165213 0
-0.0852645 0.162651 0
-0.096141 0.157316 0
-0.106847 0.148955 0
-0.117341 0.137347 0
-0.127585 0.122331 0
-0.137539 0.103828 0
-0.14717 0.0818646 0
-0.156442 0.0565722 0
-0.165307 0.0281931 0
-0.173682 -0.00292377 0
-0.181427 -0.0363267 0
-0.188315 -0.0717756 0
-0.193912 -0.108939 0
-0.197426 -0.147244 0
-0.19764 -0.185567 0
-0.19294 -0.221802 0
-0.18152 -0.252403 0
-0.161804 -0.272076 0
-0.133186 -0.27391 0
-0.0970767 -0.250534 0
-0.0580752 -0.19731 0
-0.0243367 -0.118517 0
-0.0050064 -0.0333937 0
-0.000816255 0.0372344 0
-0.00390831 0.0893586 0
-0.00958108 0.123784 0
-0.0171082 0.145693 0
-0.0257723 0.159443 0
-0.0350129 0.168014 0
-0.0444563 0.1731 0
-0.0538831 0.175475 0
-0.0631781 0.175347 0
-0.0722889 0.172633 0
-0.0811979 0.16712 0
-0.0899059 0.158565 0
-0.0984255 0.146752 0
-0.106779 0.131524 0
-0.115003 0.112814 0
-0.123149 0.0906555 0
-0.131283 0.0651874 0
-0.139479 0.0366397 0
-0.147791 0.00531645 0
-0.156202 -0.0284116 0
-0.164607 -0.0643971 0
-0.172712 -0.102615 0
-0.179821 -0.142944 0
-0.1847 -0.184776 0
-0.185529 -0.226463 0
-0.180034 -0.264657 0
-0.165877 -0.293695 0
-0.141429 -0.305357 0
-0.107019 -0.289607 0
-0.0665936 -0.237663 0
-0.0290178 -0.149478 0
-0.00619039 -0.0445905 0
-0.000559542 0.0386102 0
-0.00287287 0.0933882 0
-0.00737711 0.129931 0
-0.0135424 0.153238 0
-0.0207153 0.167735 0
-0.0283339 0.176581 0
-0.0360075 0.18165 0
-0.0435074 0.183852 0
-0.0507258 0.183484 0
-0.0576343 0.180515 0
-0.0642522 0.174764 0
-0.0706281 0.166005 0
-0.0768306 0.154034 0
-0.0829457 0.13871 0
-0.089079 0.119984 0
-0.0953598 0.0979112 0
-0.101946 0.0726515 0
-0.109019 0.0444454 0
-0.116765 0.0135691 0
-0.125308 -0.0197105 0
-0.134694 -0.055308 0
-0.144798 -0.0934947 0
-0.155104 -0.13465 0
-0.164476 -0.178819 0
-0.171029 -0.225039 0
-0.172141 -0.270465 0
-0.164761 -0.309424 0
-0.146152 -0.332684 0
-0.115272 -0.327571 0
-0.0749138 -0.280482 0
-0.0341001 -0.185049 0
-0.00758327 -0.0583642 0
-0.000326908 0.0394967 0
-0.00190701 0.0963952 0
-0.00525851 0.13478 0
-0.0100197 0.159316 0
-0.0156008 0.174412 0
-0.0214493 0.183371 0
-0.0271681 0.188252 0
-0.0325294 0.190111 0
-0.0374416 0.189355 0
-0.0419074 0.186019 0
-0.0459902 0.179962 0
-0.0497912 0.170984 0
-0.0534383 0.158904 0
-0.0570813 0.143598 0
-0.0608919 0.12504 0
-0.0650672 0.103312 0
-0.0698351 0.0786049 0
-0.0754577 0.0511882 0
-0.0822235 0.0213382 0
-0.0904045 -0.0107554 0
-0.100193 -0.0450894 0
-0.111637 -0.0821645 0
-0.124457 -0.122855 0
-0.137756 -0.167943 0
-0.14976 -0.217357 0
-0.157698 -0.269097 0
-0.157947 -0.317924 0
-0.14667 -0.354071 0
-0.121224 -0.362511 0
-0.0827084 -0.324416 0
-0.0395651 -0.225072 0
-0.00923773 -0.0751852 0
-0.000145929 0.0399695 0
-0.00111737 0.0984739 0
-0.00343448 0.13837 0
-0.00684051 0.163893 0
-0.0107996 0.179375 0
-0.0147826 0.18824 0
-0.0184068 0.192726 0
-0.0214631 0.194054 0
-0.0238904 0.192751 0
-0.0257344 0.188932 0
-0.0271102 0.182507 0
-0.0281772 0.173307 0
-0.0291255 0.161176 0
-0.0301702 0.146014 0
-0.0315473 0.127813 0
-0.0335148 0.106682 0
-0.0363549 0.0828428 0
-0.0403798 0.0565979 0
-0.0459347 0.0282492 0
-0.0533852 -0.00203484 0
-0.0630414 -0.0343651 0
-0.075106 -0.0693803 0
-0.0895591 -0.108365 0
-0.105851 -0.152842 0
-0.122535 -0.203769 0
-0.136958 -0.260325 0
-0.145183 -0.318222 0
-0.142408 -0.367824 0
-0.124263 -0.392348 0
-0.0896166 -0.367741 0
-0.0454019 -0.269106 0
-0.0112289 -0.0956518 0
-4.94702e-05 0.0401649 0
-0.000631068 0.0998315 0
-0.00215197 0.14085 0
-0.00435238 0.167019 0
-0.00672723 0.182582 0
-0.00879255 0.191081 0
-0.0102125 0.19493 0
-0.0108259 0.19552 0
-0.0106243 0.193511 0
-0.0097117 0.189104 0
-0.00826499 0.182264 0
-0.00650622 0.172858 0
-0.00469024 0.160758 0
-0.00309815 0.145885 0
-0.00202992 0.128251 0
-0.00180081 0.107982 0
-0.00273868 0.0853203 0
-0.00518295 0.0605895 0
-0.00948754 0.0341171 0
-0.0160265 0.00608669 0
-0.0251614 -0.0236955 0
-0.0371965 -0.0559503 0
-0.0523319 -0.0922068 0
-0.0704252 -0.134615 0
-0.0905548 -0.185182 0
-0.110513 -0.244531 0
-0.126436 -0.309868 0
-0.132866 -0.372523 0
-0.123732 -0.414928 0
-0.0951958 -0.408344 0
-0.0515795 -0.316333 0
-0.013648 -0.120529 0
-8.11558e-05 0.0402955 0
-0.00061056 0.100812 0
-0.00171268 0.142493 0
-0.00295953 0.168824 0
-0.00384306 0.184036 0
-0.00395911 0.191808 0
-0.00306961 0.194733 0
-0.00110404 0.194365 0
0.00186255 0.191498 0
0.00564778 0.186419 0
0.0100011 0.179149 0
0.0146275 0.169588 0
0.0192028 0.157637 0
0.0233827 0.143234 0
0.0268091 0.126406 0
0.029118 0.107288 0
0.029949 0.0861212 0
0.0289556 0.0632262 0
0.0258136 0.038927 0
0.0202176 0.0134116 0
0.011846 -0.0135139 0
0.000362706 -0.0426135 0
-0.0145782 -0.0754672 0
-0.033194 -0.114646 0
-0.0552032 -0.163012 0
-0.0791753 -0.22277 0
-0.101812 -0.29307 0
-0.117525 -0.367178 0
-0.118822 -0.42811 0
-0.0988178 -0.443702 0
-0.057975 -0.365434 0
-0.0165788 -0.150755 0
-0.000307476 0.0406842 0
-0.00128417 0.101929 0
-0.00250522 0.143698 0
-0.00314044 0.1695 0
-0.00264706 0.18375 0
-0.000761547 0.190325 0
0.0025855 0.191979 0
0.00730758 0.190431 0
0.0131932 0.18658 0
0.019959 0.180786 0
0.027274 0.173114 0
0.0347741 0.163497 0
0.0420737 0.151853 0
0.0487743 0.138137 0
0.0544719 0.12238 0
0.0587676 0.10471 0
0.0612817 0.0853538 0
0.06167 0.0645986 0
0.059637 0.0427296 0
0.0549371 0.0199049 0
0.0473444 -0.00404284 0
0.0366191 -0.0298759 0
0.0224777 -0.0591225 0
0.00450203 -0.0943988 0
-0.0177153 -0.139033 0
-0.0437565 -0.196736 0
-0.0714146 -0.268809 0
-0.095729 -0.351411 0
-0.108412 -0.429897 0
-0.0994904 -0.470841 0
-0.0642386 -0.41439 0
-0.02005 -0.187384 0
-0.000841789 0.0418334 0
-0.00300081 0.103916 0
-0.00505275 0.144985 0
-0.00546286 0.169259 0
-0.00366118 0.181696 0
0.000364674 0.186467 0
0.00639196 0.186463 0
0.0140931 0.183525 0
0.0230831 0.178611 0
0.0329577 0.172115 0
0.0433018 0.164126 0
0.0536908 0.154596 0
0.0636929 0.143453 0
0.0728739 0.130656 0
0.0808046 0.116232 0
0.0870726 0.100294 0
0.0912986 0.0830302 0
0.093155 0.0646776 0
0.0923806 0.045458 0
0.0887834 0.0254737 0
0.0822165 0.00454806 0
0.0725049 -0.0180298 0
0.0593919 -0.0437143 0
0.0424927 -0.0749321 0
0.0213022 -0.115091 0
-0.00473887 -0.168595 0
-0.0351543 -0.238877 0
-0.0665214 -0.325662 0
-0.0908598 -0.418624 0
-0.0955875 -0.486308 0
-0.069565 -0.460198 0
-0.023948 -0.231382 0
-0.00188733 0.0445625 0
-0.00631175 0.10777 0
-0.0100544 0.146925 0
-0.0105543 0.168229 0
-0.00734628 0.177717 0
-0.000872279 0.179947 0
0.00819631 0.177887 0
0.0192021 0.173393 0
0.0315521 0.167402 0
0.0447131 0.160288 0
0.0581954 0.152126 0
0.0715321 0.142869 0
0.0842686 0.132441 0
0.0959606 0.120795 0
0.10618 0.107943 0
0.114527 0.0939686 0
0.120643 0.0790131 0
0.124233 0.0632487 0
0.125073 0.0468219 0
0.123012 0.0297669 0
0.117954 0.0118801 0
0.109781 -0.00747674 0
0.0982506 -0.0296243 0
0.0829547 -0.0568269 0
0.0632849 -0.0923362 0
0.0383989 -0.140423 0
0.00753662 -0.205771 0
-0.028474 -0.29139 0
-0.0637569 -0.393275 0
-0.0844716 -0.486215 0
-0.0723268 -0.498458 0
-0.0278679 -0.283198 0
-0.00380216 0.050252 0
-0.0120472 0.11475 0
-0.0183176 0.149958 0
-0.0188709 0.166249 0
-0.0137532 0.171371 0
-0.00419135 0.170257 0
0.00852353 0.165794 0
0.023334 0.15967 0
0.0394231 0.152686 0
0.0561474 0.145118 0
0.0729703 0.13699 0
0.0894136 0.128225 0
0.105031 0.118731 0
0.119399 0.108444 0
0.13212 0.0973529 0
0.14283 0.0855018 0
0.151214 0.0729793 0
0.157018 0.0598896 0
0.160055 0.0463045 0
0.160206 0.0321932 0
0.157394 0.0173236 0
0.151528 0.00112014 0
0.142366 -0.01753 0
0.129454 -0.0407127 0
0.112044 -0.0713705 0
0.0889832 -0.113443 0
0.0588159 -0.171722 0
0.0205429 -0.251156 0
-0.0237133 -0.35397 0
-0.062013 -0.466505 0
-0.069487 -0.522838 0
-0.0308487 -0.341915 0
-0.00715346 0.0612076 0
-0.0212092 0.126095 0
-0.0302156 0.15389 0
-0.0297929 0.162448 0
-0.0213891 0.161651 0
-0.00746519 0.156492 0
0.00993471 0.149444 0
0.0293511 0.141793 0
0.0497871 0.134039 0
0.0705477 0.126281 0
0.0911019 0.11845 0
0.111004 0.11042 0
0.129853 0.102069 0
0.14728 0.0933107 0
0.162943 0.0841023 0
0.176537 0.0744483 0
0.187801 0.0643848 0
0.196527 0.0539545 0
0.202562 0.0431672 0
0.205798 0.0319432 0
0.206146 0.0200376 0
0.203483 0.00693555 0
0.197589 -0.00829024 0
0.187954 -0.0274045 0
0.173623 -0.0529374 0
0.153099 -0.0882918 0
0.12428 -0.137886 0
0.0848197 -0.207258 0
0.0337918 -0.302584 0
-0.0220452 -0.423754 0
-0.0556377 -0.524522 0
-0.0308716 -0.403635 0
-0.0125497 0.0809108 0
-0.0339309 0.141829 0
-0.0434306 0.156662 0
-0.0385719 0.154394 0
-0.0237294 0.146458 0
-0.0029897 0.137021 0
0.0208973 0.127628 0
0.0462343 0.118855 0
0.0720156 0.110759 0
0.0976092 0.103207 0
0.122569 0.0960111 0
0.146538 0.0889887 0
0.169203 0.0819861 0
0.19028 0.0748907 0
0.209506 0.0676333 0
0.226647 0.060182 0
0.241504 0.0525302 0
0.253913 0.0446743 0
0.263742 0.0365828 0
0.27088 0.0281534 0
0.275206 0.0191537 0
0.276548 0.00914082 0
0.274607 -0.00266053 0
0.268794 -0.0175859 0
0.257983 -0.0376144 0
0.24032 -0.0654283 0
0.213098 -0.104708 0
0.172849 -0.160726 0
0.116245 -0.241484 0
0.0442018 -0.356975 0
-0.0213781 -0.49213 0
-0.0238327 -0.458339 0