# vtk DataFile Version 2.0
Lid-driven cavity
ASCII
DATASET STRUCTURED_POINTS
DIMENSIONS 32 32 1
ORIGIN 0.015625 0.015625 0
SPACING 0.03125 0.03125 1
POINT_DATA 1024
SCALARS pressure double 1
LOOKUP_TABLE default
52.8858
52.6613
52.2564
51.7974
51.3618
50.9894
50.7004
50.5093
50.4327
50.491
50.7069
51.1021
51.6925
52.4834
53.4649
54.6081
55.8632
57.1621
58.415
59.5204
60.3773
60.9009
61.038
60.7794
60.1656
59.2838
58.2543
57.2143
56.3002
55.6292
55.2842
55.2734
53.1102
52.8757
52.5364
52.1658
51.8125
51.5047
51.2599
51.093
51.0206
51.0622
51.2394
51.5725
52.077
52.7592
53.6118
54.6108
55.7124
56.8577
57.9654
58.9431
59.6992
60.1572
60.2701
60.0328
59.4856
58.7106
57.8182
56.9258
56.1463
55.571
55.2648
55.2623
53.5305
53.1946
52.8427
52.5035
52.1942
51.9239
51.7003
51.5338
51.4394
51.4368
51.5487
51.7979
52.2035
52.7768
53.5169
54.4061
55.4075
56.4667
57.5057
58.4332
59.1571
59.5989
59.7096
59.4821
58.9564
58.2143
57.3647
56.5224
55.7874
55.2399
54.9365
54.922
54.0048
53.5231
53.1144
52.7673
52.4675
52.2034
51.9701
51.7717
51.6214
51.5399
51.5533
51.69
51.976
52.4312
53.0636
53.8643
54.8035
55.8281
56.8603
57.8054
58.5641
59.0482
59.1986
58.9998
58.4872
57.7426
56.8784
56.0137
55.2515
54.6674
54.3154
54.2383
54.3982
53.7541
53.2667
52.8848
52.5639
52.2717
51.9911
51.7204
51.4715
51.2676
51.1402
51.1257
51.2603
51.5751
52.0896
52.8062
53.7043
54.7311
55.8094
56.8389
57.7081
58.3125
58.5738
58.459
57.9906
57.246
56.3416
55.4068
54.5567
53.8754
53.4204
53.2336
54.5798
53.7717
53.1964
52.7609
52.3904
52.0336
51.6628
51.2717
50.8723
50.492
50.1695
49.9515
49.8869
50.0205
50.3866
51.0014
51.8576
52.9072
54.0762
55.2588
56.3289
57.1583
57.6394
57.7084
57.362
56.6625
55.7261
54.696
53.7095
52.8738
52.2613
51.9231
54.4186
53.454
52.7882
52.2837
51.8357
51.3753
50.8662
50.299
49.6875
49.0643
48.4772
47.985
47.6515
47.5385
47.6982
48.165
48.9489
50.0188
51.3102
52.7148
54.0907
55.28
56.134
56.5408
56.452
55.8968
54.98
53.8578
52.7005
51.6555
50.8299
50.2994
53.7846
52.6765
51.9206
51.3324
50.7777
50.1717
49.4707
48.6637
47.7671
46.8197
45.8795
45.019
44.3191
43.8623
43.7231
43.9596
44.6042
45.6581
47.0804
48.7669
50.5621
52.274
53.7003
54.6614
55.0372
54.7966
54.0114
52.8425
51.5018
50.1994
49.1038
48.3315
52.5527
51.3189
50.4738
49.7861
49.093
48.2953
47.3427
46.2234
44.9562
43.5866
42.1831
40.8331
39.6375
38.7029
38.132
38.0129
38.4079
39.3637
40.8884
42.8931
45.2152
47.6284
49.8673
51.6635
52.7934
53.1278
52.6695
51.5629
50.0628
48.4665
47.0387
45.9667
50.6108
49.2727
48.339
47.5337
46.6676
45.6277
44.3579
42.8449
41.1094
39.2026
37.2035
35.2154
33.3615
31.777
30.5992
29.9546
29.9432
30.6627
32.209
34.5253
37.4543
40.7422
44.0566
47.0226
49.2801
50.554
50.7261
49.882
48.3054
46.4028
44.5802
43.1376
47.8686
46.4509
45.4286
44.4856
43.4087
42.0729
40.4156
38.4207
36.1094
33.5371
30.7922
27.9944
25.2912
22.8509
20.8524
19.4703
18.8566
19.1411
20.5631
23.121
26.6826
30.9811
35.6235
40.1207
43.9469
46.6299
47.8616
47.601
46.1196
43.9411
41.6664
39.7687
44.267
42.7971
41.686
40.584
39.2581
37.5717
35.4554
32.8886
29.8905
26.5185
22.869
19.0776
15.3174
11.7937
8.73329
6.36793
4.91233
4.53824
5.61566
8.26687
12.4055
17.7753
23.9423
30.3107
36.1747
40.8186
43.666
44.4526
43.3587
41.0037
38.236
35.7861
39.7863
38.2936
37.0943
35.8137
34.2028
32.1152
29.4738
26.2512
22.4621
18.1633
13.4566
8.49247
3.47031
-1.36538
-5.73525
-9.34316
-11.9028
-13.1726
-12.7178
-10.2009
-5.63978
0.750713
8.53017
17.0248
25.3579
32.5435
37.6615
40.1061
39.84
37.5081
34.24
31.1324
34.4517
32.9671
31.6827
30.2085
28.2846
25.7559
22.537
18.5918
13.9278
8.59802
2.70748
-3.58066
-10.0417
-16.3912
-22.2949
-27.3871
-31.3017
-33.7127
-34.174
-32.0808
-27.3523
-20.1266
-10.8037
-0.0836804
11.0277
21.2813
29.3605
34.1936
35.3555
33.377
29.6573
25.784
28.3345
26.8891
25.5275
23.8541
21.6031
18.6124
14.7878
10.0831
4.49573
-1.9276
-9.08166
-16.7931
-24.814
-32.8216
-40.4269
-47.1941
-52.6721
-56.4377
-58.0759
-56.7264
-52.1676
-44.4286
-33.817
-20.9879
-6.99989
6.68918
18.3585
26.3658
29.699
28.5572
24.5169
19.775
21.5489
20.173
18.7489
16.8848
14.3136
10.8679
6.44445
0.985338
-5.52375
-13.0451
-21.476
-30.6358
-40.2564
-49.9802
-59.3673
-67.9152
-75.0922
-80.3818
-83.3385
-83.0409
-79.0298
-71.2068
-59.7415
-45.1647
-28.4815
-11.2521
4.45582
16.3777
22.7168
23.0507
18.9291
13.2303
14.2431
12.9648
11.5014
9.47415
6.61778
2.76044
-2.21068
-8.36631
-15.7344
-24.2882
-33.9299
-44.4743
-55.6367
-67.0291
-78.1667
-88.4882
-97.3902
-104.275
-108.612
-109.579
-106.466
-99.034
-87.2826
-71.5449
-52.6511
-32.1126
-12.2108
4.19849
14.3829
16.9636
13.1276
6.40864
6.58641
5.42921
3.96046
1.82066
-1.25156
-5.4336
-10.8495
-17.5848
-25.6826
-35.129
-45.8328
-57.6066
-70.1524
-83.0564
-95.7961
-107.761
-118.289
-126.714
-132.425
-134.725
-132.763
-126.16
-114.735
-98.5727
-78.2143
-54.9458
-31.0612
-9.87178
4.89538
10.5753
7.52885
-0.237374
-1.24727
-2.26682
-3.6961
-5.87039
-9.04919
-13.4199
-19.1223
-26.2599
-34.8934
-45.0231
-56.5658
-69.3334
-83.0171
-97.182
-111.274
-124.644
-136.586
-146.384
-153.369
-156.928
-156.22
-150.767
-140.217
-124.39
-103.46
-78.3169
-51.0226
-25.1059
-5.21699
4.43103
2.81411
-5.97521
-9.09797
-9.97345
-11.3066
-13.4062
-16.5372
-20.9078
-26.6825
-33.9887
-42.9082
-53.4569
-65.5599
-79.0288
-93.5458
-108.658
-123.786
-138.251
-151.315
-162.234
-170.311
-174.94
-175.432
-171.269
-161.971
-147.117
-126.486
-100.443
-70.5712
-40.3019
-14.994
-0.543753
0.0462587
-9.66348
-16.8387
-17.5774
-18.7447
-20.624
-23.5024
-27.6289
-33.2085
-40.4026
-49.3187
-59.9887
-72.345
-86.1977
-101.22
-116.945
-132.771
-147.997
-161.863
-173.609
-182.53
-188.017
-189.525
-186.585
-178.674
-165.174
-145.499
-119.432
-87.8716
-53.8091
-22.9717
-2.9103
0.833919
-9.55824
-24.3948
-25.0215
-25.9365
-27.4053
-29.7682
-33.3494
-38.4196
-45.1878
-53.7921
-64.2797
-76.5855
-90.5145
-105.731
-121.752
-137.962
-153.642
-168.016
-180.313
-189.828
-195.963
-198.243
-196.298
-189.64
-177.54
-159.108
-133.565
-100.996
-63.6353
-27.1593
-0.579274
7.55019
-3.03247
-31.7663
-32.3266
-32.8756
-33.6834
-35.1993
-37.8763
-42.0852
-48.0982
-56.0893
-66.1147
-78.1108
-91.874
-107.049
-123.133
-139.49
-155.386
-170.034
-182.657
-192.551
-199.129
-201.93
-200.65
-194.88
-183.875
-166.52
-141.536
-108.164
-67.619
-25.0805
9.30777
23.6002
13.8044
-39.06
-39.6203
-39.6378
-39.4456
-39.6975
-41.0551
-44.0302
-48.985
-56.1185
-65.4879
-77.0111
-90.4586
-105.449
-121.454
-137.816
-153.783
-168.559
-181.362
-191.485
-198.342
-201.476
-200.525
-195.059
-184.46
-167.559
-142.568
-107.919
-63.6124
-13.8786
30.4436
53.7085
46.5839
-46.5505
-47.1858
-46.4008
-44.7296
-43.1902
-42.7624
-44.143
-47.7667
-53.8522
-62.4368
-73.4001
-86.4702
-101.226
-117.106
-133.427
-149.42
-164.276
-177.207
-187.495
-194.54
-197.866
-197.055
-191.502
-180.424
-162.597
-136.325
-99.1677
-49.6042
9.54187
67.3279
104.17
103.233
-54.8156
-55.5587
-53.4779
-49.6175
-45.6105
-42.8732
-42.3164
-44.4049
-49.3429
-57.113
-67.5282
-80.2535
-94.8149
-110.61
-126.926
-142.976
-157.939
-171.011
-181.457
-188.64
-192.033
-191.173
-185.221
-173.08
-153.219
-123.429
-81.0739
-23.7145
48.3892
125.108
182.978
194.582
-65.0598
-65.7293
-61.3829
-54.2327
-46.8881
-41.2835
-38.5059
-38.9616
-42.769
-49.8043
-59.7798
-72.2763
-86.7547
-102.566
-118.967
-135.151
-150.282
-163.538
-174.154
-181.44
-184.784
-183.609
-176.981
-163.184
-140.189
-105.077
-54.1882
15.9135
105.916
209.233
299.691
335.009
-79.907
-79.5517
-70.9181
-58.7057
-46.9116
-37.9029
-32.7343
-31.6017
-34.4254
-40.9103
-50.633
-63.0729
-77.619
-93.5736
-110.164
-126.563
-141.921
-155.395
-166.18
-173.517
-176.677
-174.903
-167.244
-151.155
-123.883
-81.5595
-19.1464
68.6699
184.976
324.787
464.743
543.145
-105.391
-100.414
-83.0929
-62.9251
-45.3321
-32.5152
-24.9851
-22.4917
-24.6185
-30.8308
-40.543
-53.1255
-67.8961
-84.1125
-100.976
-117.643
-133.252
-146.939
-157.855
-165.16
-167.99
-165.373
-156.101
-137.085
-104.419
-53.094
23.643
133.681
284.066
475.54
687.455
842.549
-155.916
-133.302
-97.7622
-65.3369
-40.7816
-24.181
-14.7031
-11.3917
-13.3264
-19.6824
-29.7055
-42.6675
-57.8286
-74.4152
-91.6132
-108.574
-124.426
-138.29
-149.273
-156.451
-158.808
-155.119
-143.776
-121.168
-82.2901
-20.8952
71.6908
206.667
397.295
656.064
977.663
1261.18
-264.626
-177.601
-106.919
-58.6734
-27.7605
-9.17964
0.400547
3.08731
0.288472
-6.96387
-17.8262
-31.5333
-47.3337
-64.4558
-82.0946
-99.412
-115.543
-129.598
-140.653
-147.704
-149.588
-144.819
-131.338
-104.971
-60.216
10.2593
116.859
274.339
504.548
842.694
1340.67
1939.67
-534.738
-191.335
-69.9879
-19.1011
6.05321
18.7973
23.7479
22.9149
17.4311
8.1015
-4.39119
-19.3938
-36.2357
-54.2063
-72.5476
-90.4578
-107.096
-121.582
-132.978
-140.239
-142.112
-136.935
-122.256
-93.9265
-46.3313
28.3309
141.27
309.41
561.645
959.541
1669.59
3127.36
VECTORS velocity double
8.33412e-05 -8.33412e-05 0
0.000170289 -3.60644e-06 0
3.65246e-05 0.000137371 0
-0.00036741 0.000266564 0
-0.000999957 0.000365983 0
-0.00180467 0.000438726 0
-0.00273572 0.00049233 0
-0.00376009 0.000532041 0
-0.00485129 0.000559159 0
-0.00598207 0.000571619 0
-0.00711898 0.000565291 0
-0.00821956 0.000535291 0
-0.00923197 0.000477115 0
-0.0100967 0.000387588 0
-0.01075 0.000265696 0
-0.011129 0.000113309 0
-0.0111779 -6.4339e-05 0
-0.0108549 -0.000258659 0
-0.0101407 -0.000455553 0
-0.00904802 -0.000637152 0
-0.00762718 -0.000783684 0
-0.0059674 -0.000876095 0
-0.00419199 -0.000899317 0
-0.00244702 -0.00084565 0
-0.00088389 -0.000717485 0
0.000362087 -0.000528492 0
0.00119348 -0.000302897 0
0.00156764 -7.12687e-05 0
0.00150773 0.000131178 0
0.00111107 0.00026548 0
0.000561047 0.000284546 0
0.00013825 0.00013825 0
6.49508e-08 -0.000166747 0
-0.000248238 0.000241155 0
-0.00105566 0.0008338 0
-0.00245852 0.00137693 0
-0.00437586 0.00180549 0
-0.00669741 0.00212547 0
-0.00932085 0.00236008 0
-0.0121579 0.00252569 0
-0.0151263 0.00262508 0
-0.018139 0.00264917 0
-0.0210962 0.00258185 0
-0.023882 0.00240513 0
-0.0263659 0.00210361 0
-0.0284083 0.00166823 0
-0.0298693 0.00109929 0
-0.0306195 0.000408932 0
-0.0305531 -0.000377369 0
-0.029602 -0.00121971 0
-0.0277503 -0.00206043 0
-0.0250464 -0.00282895 0
-0.0216106 -0.00344845 0
-0.0176365 -0.00384519 0
-0.0133821 -0.00396011 0
-0.0091507 -0.00376118 0
-0.00526162 -0.00325417 0
-0.00201061 -0.00248879 0
0.000373261 -0.00155786 0
0.00177046 -0.000587671 0
0.00220234 0.000275608 0
0.00184716 0.000872885 0
0.00104364 0.00103069 0
0.00029102 0.00056752 0
-0.000181202 1.43899e-05 0
-0.00100617 0.00113329 0
-0.00274613 0.00248905 0
-0.0053265 0.0037049 0
-0.00860333 0.00467169 0
-0.0124217 0.0053992 0
-0.0166385 0.00592659 0
-0.021122 0.00627975 0
-0.0257418 0.00645915 0
-0.0303576 0.00644363 0
-0.0348132 0.00620027 0
-0.0389357 0.00569498 0
-0.0425397 0.00490166 0
-0.0454365 0.00380946 0
-0.0474459 0.00242843 0
-0.0484096 0.000793623 0
-0.0482056 -0.00103242 0
-0.0467638 -0.00295754 0
-0.0440787 -0.00485939 0
-0.040221 -0.00659166 0
-0.0353462 -0.00799628 0
-0.0296969 -0.00892073 0
-0.0235964 -0.0092396 0
-0.0174306 -0.00887887 0
-0.011617 -0.00783908 0
-0.00656006 -0.00621186 0
-0.002595 -0.00418373 0
6.97782e-05 -0.00202377 0
0.00140483 -5.52219e-05 0
0.00159164 0.00137208 0
0.00102439 0.00190227 0
0.000307203 0.00116574 0
-0.000400745 0.000596337 0
-0.00191515 0.00289072 0
-0.00473276 0.00528919 0
-0.0086056 0.00735796 0
-0.0132971 0.00898695 0
-0.0186013 0.0102066 0
-0.0243397 0.0110744 0
-0.0303465 0.0116222 0
-0.0364536 0.0118435 0
-0.04248 0.0117015 0
-0.0482281 0.0111461 0
-0.0534859 0.0101294 0
-0.0580347 0.00861998 0
-0.0616594 0.00661273 0
-0.0641614 0.00413654 0
-0.0653713 0.00125907 0
-0.0651627 -0.00191046 0
-0.063463 -0.005221 0
-0.0602638 -0.00848023 0
-0.0556331 -0.0114592 0
-0.0497274 -0.0139092 0
-0.0427986 -0.0155858 0
-0.0351936 -0.0162801 0
-0.0273422 -0.0158556 0
-0.0197306 -0.0142875 0
-0.0128556 -0.0116955 0
-0.00716111 -0.00835963 0
-0.00296429 -0.00470947 0
-0.000384834 -0.00128404 0
0.000704828 0.00132442 0
0.000698694 0.00252332 0
0.000243815 0.00171676 0
-0.000635112 0.00163219 0
-0.0028857 0.00561986 0
-0.00684298 0.00933494 0
-0.0120538 0.0123959 0
-0.0181707 0.0147574 0
-0.024931 0.0165008 0
-0.0321236 0.0177111 0
-0.0395567 0.0184254 0
-0.0470363 0.0186269 0
-0.0543545 0.0182627 0
-0.0612882 0.0172667 0
-0.0676034 0.0155819 0
-0.0730641 0.013177 0
-0.0774427 0.010059 0
-0.0805315 0.00628101 0
-0.0821537 0.00194679 0
-0.0821738 -0.0027867 0
-0.080504 -0.00771433 0
-0.0771117 -0.0125783 0
-0.0720361 -0.0170675 0
-0.0654053 -0.0208375 0
-0.057451 -0.0235406 0
-0.0485164 -0.0248649 0
-0.0390536 -0.0245849 0
-0.0296048 -0.0226187 0
-0.0207603 -0.0190838 0
-0.0130905 -0.0143356 0
-0.00705402 -0.00896684 0
-0.0029017 -0.00375845 0
-0.000601607 0.000409082 0
0.000195851 0.00264733 0
0.000141449 0.00210203 0
-0.000872258 0.00313956 0
-0.00386462 0.00935544 0
-0.0089612 0.0146532 0
-0.0154939 0.0188212 0
-0.0229993 0.0219543 0
-0.0311581 0.024223 0
-0.0397309 0.0257542 0
-0.0485081 0.0265927 0
-0.057281 0.026712 0
-0.0658284 0.0260432 0
-0.0739156 0.0245071 0
-0.0812994 0.0220406 0
-0.0877367 0.0186162 0
-0.092993 0.0142547 0
-0.096852 0.00903309 0
-0.0991235 0.00308839 0
-0.0996509 -0.00338077 0
-0.0983155 -0.0101256 0
-0.0950418 -0.0168329 0
-0.0898177 -0.0231126 0
-0.0827198 -0.0285211 0
-0.0739361 -0.032595 0
-0.0637838 -0.0348975 0
-0.0527184 -0.0350805 0
-0.0413277 -0.0329626 0
-0.0302984 -0.0286136 0
-0.020348 -0.0224261 0
-0.0121175 -0.0151434 0
-0.00604153 -0.00781019 0
-0.00223315 -0.00164765 0
-0.000424229 0.00209768 0
1.91857e-05 0.00226266 0
-0.00110237 0.0051142 0
-0.00480909 0.0140799 0
-0.0109938 0.02121 0
-0.0187795 0.0265829 0
-0.0275926 0.0305111 0
-0.0370626 0.0332951 0
-0.0469281 0.0351204 0
-0.0569702 0.0360459 0
-0.0669755 0.036037 0
-0.0767206 0.0350107 0
-0.0859699 0.0328761 0
-0.0944797 0.0295652 0
-0.102004 0.0250534 0
-0.108303 0.0193722 0
-0.113145 0.0126166 0
-0.116317 0.00494899 0
-0.117631 -0.00340039 0
-0.116923 -0.0121487 0
-0.114065 -0.0209419 0
-0.108977 -0.0293158 0
-0.101667 -0.0367257 0
-0.092259 -0.0425821 0
-0.0810208 -0.0463009 0
-0.0683882 -0.047375 0
-0.0549752 -0.0454719 0
-0.0415577 -0.0405511 0
-0.0290141 -0.0329826 0
-0.0182084 -0.0236231 0
-0.00982293 -0.0137919 0
-0.0041837 -0.0051136 0
-0.00115104 0.000722053 0
-0.000119004 0.00216284 0
-0.00131522 0.00753179 0
-0.0056777 0.0197315 0
-0.0128545 0.0289199 0
-0.0217782 0.0355826 0
-0.031778 0.0403243 0
-0.0424409 0.0436148 0
-0.0534909 0.0457161 0
-0.0647071 0.0467085 0
-0.0758801 0.0465526 0
-0.0867926 0.0451527 0
-0.0972155 0.0424063 0
-0.106909 0.0382381 0
-0.115626 0.0326219 0
-0.123116 0.0255924 0
-0.129131 0.0172534 0
-0.133428 0.00778134 0
-0.135774 -0.00257288 0
-0.13596 -0.0134973 0
-0.133797 -0.0246146 0
-0.129133 -0.0353949 0
-0.121895 -0.0451946 0
-0.112124 -0.0532926 0
-0.100013 -0.0589398 0
-0.085946 -0.0614354 0
-0.0705309 -0.0602395 0
-0.0546077 -0.0551242 0
-0.0392116 -0.0463492 0
-0.0254601 -0.0348136 0
-0.0143521 -0.0220949 0
-0.00651527 -0.0102866 0
-0.00200803 -0.00164486 0
-0.000277069 0.00176677 0
-0.00149984 0.0103469 0
-0.00642866 0.0262077 0
-0.01446 0.0376517 0
-0.0243649 0.0456794 0
-0.0353922 0.0512545 0
-0.047096 0.0550513 0
-0.0591924 0.0574258 0
-0.0714649 0.0584874 0
-0.0837138 0.0581956 0
-0.0957339 0.0564424 0
-0.107306 0.0531119 0
-0.118198 0.0481172 0
-0.128161 0.0414226 0
-0.136935 0.0330565 0
-0.14425 0.0231198 0
-0.149831 0.0117919 0
-0.153403 -0.000665576 0
-0.154707 -0.013914 0
-0.1535 -0.0275684 0
-0.149557 -0.0410474 0
-0.142719 -0.0536184 0
-0.132927 -0.0644318 0
-0.120273 -0.0725657 0
-0.105051 -0.0770985 0
-0.0878143 -0.0772283 0
-0.0694203 -0.0724526 0
-0.0510312 -0.0628061 0
-0.0340254 -0.0491139 0
-0.0197798 -0.0331482 0
-0.00933148 -0.0175185 0
-0.00304323 -0.00520848 0
-0.000466751 0.00102295 0
-0.00164515 0.0134919 0
-0.00702113 0.0333675 0
-0.0157311 0.0472332 0
-0.0264217 0.0566935 0
-0.0382799 0.0631259 0
-0.0508358 0.0674397 0
-0.0638023 0.0701003 0
-0.0769711 0.0712542 0
-0.0901562 0.0708628 0
-0.103167 0.0688064 0
-0.115799 0.0649523 0
-0.127827 0.0591961 0
-0.139004 0.051484 0
-0.149063 0.0418278 0
-0.157714 0.0303149 0
-0.164654 0.0171173 0
-0.169572 0.0024988 0
-0.172165 -0.0131803 0
-0.172143 -0.0295321 0
-0.169221 -0.0459479 0
-0.163152 -0.0616252 0
-0.153767 -0.0756014 0
-0.141029 -0.0867877 0
-0.1251 -0.0940284 0
-0.10642 -0.0962153 0
-0.085796 -0.092483 0
-0.0644565 -0.0825045 0
-0.0440129 -0.0668649 0
-0.0262591 -0.0473966 0
-0.0127561 -0.0272214 0
-0.00431884 -0.0102311 0
-0.000702997 -0.0001468 0
-0.0017409 0.0168779 0
-0.00741795 0.0410345 0
-0.0165965 0.0574547 0
-0.0278422 0.0684082 0
-0.0402988 0.075726 0
-0.053479 0.0805759 0
-0.0670949 0.0835466 0
-0.0809477 0.0848294 0
-0.0948662 0.0843912 0
-0.108677 0.0821002 0
-0.122191 0.0778042 0
-0.135194 0.0713751 0
-0.147446 0.062734 0
-0.158677 0.051867 0
-0.168589 0.038839 0
-0.176862 0.0238058 0
-0.18316 0.00702566 0
-0.187142 -0.011131 0
-0.188487 -0.030259 0
-0.186869 -0.0497603 0
-0.18196 -0.068791 0
-0.173477 -0.0863042 0
-0.161232 -0.101068 0
-0.145211 -0.111699 0
-0.125679 -0.116757 0
-0.103307 -0.114936 0
-0.0792983 -0.1054 0
-0.0554265 -0.0882843 0
-0.0338998 -0.0652578 0
-0.0169074 -0.0398556 0
-0.00590128 -0.0170402 0
-0.0010025 -0.0018523 0
-0.00177877 0.0203976 0
-0.00758903 0.0490021 0
-0.0169982 0.0680747 0
-0.0285388 0.0805745 0
-0.041329 0.0888066 0
-0.0548683 0.0942147 0
-0.0688672 0.0975226 0
-0.0831354 0.0989743 0
-0.0975166 0.0985461 0
-0.111855 0.0960948 0
-0.125978 0.0914467 0
-0.139689 0.0844465 0
-0.152759 0.0749847 0
-0.164929 0.0630165 0
-0.175904 0.0485778 0
-0.185366 0.0318011 0
-0.192968 0.0129306 0
-0.198356 -0.00766612 0
-0.201189 -0.0295461 0
-0.201117 -0.0521621 0
-0.19775 -0.0746657 0
-0.190694 -0.0959689 0
-0.179603 -0.11474 0
-0.164251 -0.1294 0
-0.144661 -0.138178 0
-0.121275 -0.139271 0
-0.0951519 -0.131197 0
-0.0681155 -0.113395 0
-0.0427287 -0.0870602 0
-0.0218754 -0.055899 0
-0.00785318 -0.0260252 0
-0.00138223 -0.00423704 0
-0.00175351 0.0239299 0
-0.00751501 0.0570416 0
-0.0168978 0.0788272 0
-0.0284515 0.0929163 0
-0.0412851 0.102089 0
-0.0548862 0.108073 0
-0.0689613 0.111739 0
-0.0833253 0.113391 0
-0.0978347 0.11302 0
-0.112351 0.110475 0
-0.126722 0.105561 0
-0.140772 0.098093 0
-0.154294 0.0879309 0
-0.167051 0.0749963 0
-0.178771 0.0592939 0
-0.189153 0.0409286 0
-0.197871 0.0201237 0
-0.204577 -0.00276564 0
-0.208931 -0.0272596 0
-0.210573 -0.052878 0
-0.209078 -0.0788125 0
-0.203964 -0.103992 0
-0.194724 -0.127048 0
-0.180899 -0.146269 0
-0.162213 -0.159586 0
-0.138782 -0.16468 0
-0.111387 -0.159307 0
-0.0817473 -0.141962 0
-0.0526586 -0.112969 0
-0.027703 -0.0757986 0
-0.0102272 -0.0376236 0
-0.00185874 -0.00747801 0
-0.00166392 0.0273473 0
-0.00719055 0.0649123 0
-0.0162827 0.0894314 0
-0.0275569 0.10514 0
-0.0401284 0.11527 0
-0.0534728 0.121837 0
-0.0672881 0.125865 0
-0.0813898 0.12773 0
-0.0956444 0.127445 0
-0.10993 0.124853 0
-0.124118 0.119742 0
-0.138058 0.111902 0
-0.151576 0.101163 0
-0.164471 0.0874153 0
-0.17651 0.0706347 0
-0.187437 0.0508975 0
-0.196967 0.028402 0
-0.204788 0.00348416 0
-0.210576 -0.0233673 0
-0.213986 -0.0517185 0
-0.214599 -0.0808542 0
-0.211874 -0.109789 0
-0.205159 -0.137205 0
-0.193754 -0.161342 0
-0.177043 -0.17991 0
-0.154728 -0.190102 0
-0.127171 -0.188838 0
-0.0958048 -0.173437 0
-0.0634719 -0.142915 0
-0.034371 -0.0999092 0
-0.0130606 -0.0522992 0
-0.00244736 -0.0117841 0
-0.00151354 0.0305248 0
-0.0066269 0.0723748 0
-0.0151707 0.0996048 0
-0.0258757 0.116946 0
-0.0378777 0.128038 0
-0.05064 0.135176 0
-0.0638463 0.139548 0
-0.0773079 0.141611 0
-0.090898 0.141409 0
-0.104512 0.138789 0
-0.118044 0.133526 0
-0.131378 0.125392 0
-0.144378 0.114192 0
-0.156893 0.0997944 0
-0.168747 0.0821497 0
-0.179748 0.0613102 0
-0.189677 0.0374481 0
-0.198288 0.0108708 0
-0.205293 -0.0179614 0
-0.210395 -0.0486127 0
-0.213221 -0.0805209 0
-0.213209 -0.11286 0
-0.209599 -0.144459 0
-0.201463 -0.173628 0
-0.187827 -0.197972 0
-0.16791 -0.214273 0
-0.141523 -0.21861 0
-0.10961 -0.206945 0
-0.0748198 -0.176531 0
-0.04179 -0.128425 0
-0.0163715 -0.0705126 0
-0.00316198 -0.0173934 0
-0.00131095 0.0333492 0
-0.00585317 0.0792059 0
-0.0136131 0.109077 0
-0.0234772 0.128042 0
-0.0346159 0.140082 0
-0.0464797 0.147757 0
-0.0587336 0.152426 0
-0.0711795 0.15464 0
-0.0836948 0.154485 0
-0.0961909 0.151822 0
-0.108589 0.146423 0
-0.120809 0.138048 0
-0.132763 0.12649 0
-0.144354 0.111601 0
-0.155475 0.0933188 0
-0.166013 0.0716796 0
-0.175839 0.0468338 0
-0.184797 0.0190543 0
-0.192684 -0.0112538 0
-0.199273 -0.043629 0
-0.204259 -0.0776926 0
-0.207113 -0.112846 0
-0.207021 -0.148174 0
-0.202873 -0.182196 0
-0.193345 -0.212568 0
-0.177136 -0.235803 0
-0.153393 -0.247208 0
-0.122369 -0.241285 0
-0.0862384 -0.213112 0
-0.0497999 -0.161312 0
-0.0201575 -0.0926861 0
-0.00401578 -0.0245712 0
-0.00106962 0.0357298 0
-0.00491641 0.0852143 0
-0.0116959 0.117608 0
-0.0204816 0.138161 0
-0.0304922 0.151113 0
-0.0411668 0.159265 0
-0.0521483 0.164154 0
-0.0632265 0.166436 0
-0.0742813 0.166258 0
-0.0852408 0.163505 0
-0.0960558 0.157954 0
-0.106685 0.149367 0
-0.117091 0.137531 0
-0.127238 0.122297 0
-0.137092 0.103599 0
-0.146626 0.081471 0
-0.15581 0.0560527 0
-0.164606 0.0275891 0
-0.172935 -0.00357247 0
-0.180667 -0.0369894 0
-0.187578 -0.0724348 0
-0.193235 -0.109594 0
-0.196842 -0.147911 0
-0.197176 -0.186274 0
-0.192613 -0.22258 0
-0.181334 -0.25328 0
-0.161748 -0.27306 0
-0.133231 -0.274975 0
-0.0971773 -0.251606 0
-0.058178 -0.198256 0
-0.0243988 -0.119164 0
-0.0050234 -0.0336104 0
-0.000807369 0.0376068 0
-0.00388046 0.0902572 0
-0.00953802 0.125003 0
-0.0170585 0.147073 0
-0.0257198 0.160873 0
-0.034954 0.169414 0
-0.0443821 0.174414 0
-0.053781 0.176653 0
-0.0630341 0.17635 0
-0.0720887 0.173428 0
-0.0809278 0.167685 0
-0.089554 0.158891 0
-0.097982 0.14684 0
-0.106238 0.13139 0
-0.114362 0.112484 0
-0.122411 0.0901679 0
-0.130458 0.0645872 0
-0.138583 0.035976 0
-0.146849 0.00463597 0
-0.155245 -0.029071 0
-0.16367 -0.0650158 0
-0.171832 -0.103194 0
-0.179034 -0.143502 0
-0.184034 -0.185349 0
-0.185008 -0.227094 0
-0.179669 -0.265384 0
-0.165667 -0.294544 0
-0.141353 -0.306321 0
-0.107037 -0.290629 0
-0.0666535 -0.238616 0
-0.0290656 -0.150171 0
-0.00620554 -0.0448393 0
-0.000545603 0.0389598 0
-0.00282421 0.094256 0
-0.00729002 0.131127 0
-0.0134242 0.154603 0
-0.0205713 0.169151 0
-0.0281638 0.177963 0
-0.0358053 0.182935 0
-0.0432639 0.184989 0
-0.0504306 0.184433 0
-0.0572766 0.181245 0
-0.0638222 0.175253 0
-0.0701175 0.166245 0
-0.0762332 0.15403 0
-0.0822581 0.138481 0
-0.0883011 0.11956 0
-0.0944956 0.0973352 0
-0.101004 0.0719751 0
-0.108014 0.0437244 0
-0.115718 0.0128571 0
-0.124246 -0.0203689 0
-0.133647 -0.055891 0
-0.143801 -0.0940029 0
-0.154188 -0.135105 0
-0.163672 -0.179261 0
-0.170362 -0.225517 0
-0.17163 -0.271031 0
-0.164414 -0.310117 0
-0.14596 -0.333515 0
-0.115206 -0.328504 0
-0.0749249 -0.281406 0
-0.0341298 -0.185764 0
-0.00759553 -0.0586404 0
-0.000308777 0.0398142 0
-0.00184028 0.0972117 0
-0.00513183 0.135929 0
-0.00983843 0.160642 0
-0.0153722 0.175793 0
-0.021176 0.184717 0
-0.026848 0.189494 0
-0.0321574 0.191198 0
-0.0370113 0.190245 0
-0.0414127 0.18668 0
-0.0454259 0.180376 0
-0.0491537 0.171145 0
-0.0527257 0.158818 0
-0.0562942 0.143287 0
-0.0600332 0.124536 0
-0.0641425 0.102663 0
-0.068853 0.0778665 0
-0.0744303 0.0504208 0
-0.0811664 0.0206006 0
-0.0893364 -0.0114145 0
-0.0991364 -0.0456442 0
-0.110617 -0.0826149 0
-0.123501 -0.123223 0
-0.136889 -0.16827 0
-0.149011 -0.217696 0
-0.157089 -0.269505 0
-0.157495 -0.318452 0
-0.146379 -0.35475 0
-0.121079 -0.363325 0
-0.082669 -0.325276 0
-0.0395738 -0.225784 0
-0.00924619 -0.0754821 0
-0.000124571 0.0402475 0
-0.00103583 0.0992211 0
-0.00327386 0.139449 0
-0.00660369 0.165159 0
-0.010495 0.180701 0
-0.0144161 0.189533 0
-0.0179803 0.193914 0
-0.0209758 0.195083 0
-0.023341 0.193579 0
-0.0251219 0.189529 0
-0.0264347 0.182854 0
-0.02744 0.173401 0
-0.0283301 0.161025 0
-0.0293218 0.14564 0
-0.0306528 0.127253 0
-0.0325822 0.105985 0
-0.0353932 0.082066 0
-0.0393986 0.055804 0
-0.0449439 0.0274988 0
-0.0523951 -0.00269153 0
-0.0620638 -0.0348984 0
-0.0741545 -0.069789 0
-0.0886495 -0.108671 0
-0.105003 -0.153081 0
-0.121772 -0.203995 0
-0.136305 -0.260595 0
-0.144667 -0.318595 0
-0.142045 -0.368345 0
-0.124051 -0.393024 0
-0.0895295 -0.368508 0
-0.0453886 -0.269788 0
-0.0112328 -0.0959611 0
-2.58392e-05 0.0403979 0
-0.00053821 0.100494 0
-0.00196376 0.141839 0
-0.0040685 0.168203 0
-0.00635662 0.183837 0
-0.00834393 0.192307 0
-0.00969145 0.196053 0
-0.0102361 0.196485 0
-0.0099696 0.194276 0
-0.00899701 0.18964 0
-0.00749573 0.182554 0
-0.00568932 0.1729 0
-0.00383499 0.160562 0
-0.002215 0.145475 0
-0.00112994 0.127664 0
-0.000895034 0.107268 0
-0.00183723 0.0845359 0
-0.00429402 0.0597962 0
-0.00861637 0.0333742 0
-0.0151748 0.00544275 0
-0.0243292 -0.0242096 0
-0.036384 -0.0563324 0
-0.0515414 -0.0924752 0
-0.0696657 -0.1348 0
-0.0898434 -0.185329 0
-0.109875 -0.244695 0
-0.1259 -0.310108 0
-0.13246 -0.372894 0
-0.12347 -0.415458 0
-0.0950675 -0.408998 0
-0.0515446 -0.316962 0
-0.0136468 -0.120841 0
-5.60966e-05 0.0404799 0
-0.000509744 0.101378 0
-0.0015035 0.143375 0
-0.00263778 0.169907 0
-0.00341718 0.1852 0
-0.00343975 0.192953 0
-0.00246521 0.19578 0
-0.000422036 0.19526 0
0.002613 0.1922 0
0.00645582 0.186901 0
0.0108542 0.179393 0
0.0155117 0.169596 0
0.0201033 0.157419 0
0.0242842 0.142816 0
0.0276964 0.125825 0
0.0299773 0.106591 0
0.0307695 0.085363 0
0.0297306 0.0624648 0
0.0265415 0.0382171 0
0.0209029 0.012797 0
0.0124998 -0.0140063 0
0.000999252 -0.0429804 0
-0.0139493 -0.0757213 0
-0.0325715 -0.114807 0
-0.0545946 -0.163121 0
-0.0785994 -0.222867 0
-0.101299 -0.293211 0
-0.117109 -0.367421 0
-0.11853 -0.4285 0
-0.0986579 -0.444231 0
-0.0579206 -0.365989 0
-0.0165723 -0.15106 0
-0.000281675 0.0408176 0
-0.00117852 0.102391 0
-0.00228168 0.144459 0
-0.00279024 0.170465 0
-0.00217656 0.184807 0
-0.00018108 0.191373 0
0.00326495 0.192939 0
0.00807295 0.191249 0
0.0140297 0.187218 0
0.0208504 0.181219 0
0.0282017 0.173326 0
0.0357181 0.163489 0
0.0430139 0.151639 0
0.0496911 0.137739 0
0.055347 0.121834 0
0.0595857 0.104062 0
0.0620323 0.084653 0
0.0623485 0.0638974 0
0.0602461 0.042076 0
0.0554864 0.0193364 0
0.0478489 -0.00450522 0
0.037096 -0.030228 0
0.0229432 -0.0593724 0
0.00497101 -0.0945615 0
-0.017236 -0.139137 0
-0.0432765 -0.196806 0
-0.0709591 -0.26889 0
-0.0953336 -0.351558 0
-0.108113 -0.430162 0
-0.0993104 -0.471243 0
-0.0641678 -0.414857 0
-0.0200382 -0.18767 0
-0.000815859 0.0419152 0
-0.00289344 0.104268 0
-0.00482182 0.145613 0
-0.00509412 0.170091 0
-0.00315692 0.18263 0
0.000994362 0.187403 0
0.00713361 0.187323 0
0.0149301 0.18426 0
0.0239957 0.179185 0
0.0339239 0.172503 0
0.0442977 0.164316 0
0.0546914 0.154589 0
0.0646735 0.143261 0
0.0738113 0.130302 0
0.0816785 0.115749 0
0.0878672 0.0997205 0
0.0920042 0.0824112 0
0.0937691 0.0640581 0
0.0929088 0.0448781 0
0.0892383 0.0249645 0
0.0826155 0.00412696 0
0.0728672 -0.0183589 0
0.0597364 -0.0439579 0
0.0428361 -0.0751035 0
0.0216561 -0.115208 0
-0.00436846 -0.16867 0
-0.0347776 -0.238934 0
-0.0661699 -0.325747 0
-0.090573 -0.418791 0
-0.0953992 -0.486592 0
-0.0694821 -0.460568 0
-0.0239312 -0.23164 0
-0.00186215 0.0445932 0
-0.00620677 0.108012 0
-0.0098249 0.147416 0
-0.0101796 0.168916 0
-0.00682291 0.178512 0
-0.000208832 0.180756 0
0.00898476 0.178637 0
0.0200963 0.174038 0
0.0325279 0.167909 0
0.0457438 0.160635 0
0.0592524 0.152302 0
0.0725861 0.142875 0
0.0852915 0.132287 0
0.0969268 0.120502 0
0.107068 0.10754 0
0.115321 0.0934882 0
0.121334 0.0784929 0
0.12482 0.0627256 0
0.125563 0.0463285 0
0.123419 0.029328 0
0.118296 0.0115099 0
0.110077 -0.00777476 0
0.0985211 -0.0298556 0
0.0832166 -0.0570011 0
0.0635509 -0.0924645 0
0.038677 -0.140515 0
0.00782965 -0.205833 0
-0.0281807 -0.291446 0
-0.0634984 -0.393371 0
-0.0842868 -0.486397 0
-0.0722365 -0.49873 0
-0.0278468 -0.283418 0
-0.00377955 0.0502349 0
-0.0119515 0.114887 0
-0.0181025 0.15031 0
-0.0185087 0.166783 0
-0.013233 0.172013 0
-0.00351742 0.170926 0
0.00933588 0.166421 0
0.0242624 0.160216 0
0.0404405 0.153122 0
0.0572235 0.145423 0
0.074073 0.137156 0
0.0905106 0.128251 0
0.106092 0.118625 0
0.120397 0.108224 0
0.133033 0.0970409 0
0.143642 0.0851251 0
0.151917 0.0725675 0
0.157611 0.0594715 0
0.160546 0.0459053 0
0.160608 0.0318321 0
0.157726 0.0170121 0
0.151806 0.00086134 0
0.14261 -0.01774 0
0.129678 -0.0408802 0
0.112261 -0.0715025 0
0.0892021 -0.113544 0
0.0590409 -0.171795 0
0.0207735 -0.251206 0
-0.0234949 -0.354025 0
-0.061843 -0.466606 0
-0.069395 -0.523019 0
-0.0308246 -0.342089 0
-0.00713704 0.0611515 0
-0.0211345 0.12614 0
-0.0300356 0.154109 0
-0.0294716 0.162826 0
-0.020907 0.16213 0
-0.00682046 0.157007 0
0.0107284 0.149938 0
0.0302702 0.142231 0
0.050803 0.134396 0
0.0716284 0.126541 0
0.0922137 0.118603 0
0.112113 0.110466 0
0.130929 0.102013 0
0.148295 0.0931649 0
0.163875 0.0838838 0
0.17737 0.0741772 0
0.188528 0.0640829 0
0.197147 0.0536431 0
0.203081 0.0428648 0
0.206227 0.031664 0
0.2065 0.0197902 0
0.20378 0.00672298 0
0.197842 -0.00846837 0
0.188176 -0.0275533 0
0.173824 -0.0530605 0
0.153288 -0.088391 0
0.124462 -0.137961 0
0.0849973 -0.207308 0
0.0339623 -0.302619 0
-0.0219015 -0.4238 0
-0.0555509 -0.524624 0
-0.0308461 -0.40376 0
-0.012545 0.0808335 0
-0.0338946 0.141805 0
-0.0433154 0.156766 0
-0.038334 0.154623 0
-0.0233408 0.146774 0
-0.00244139 0.137376 0
0.0215965 0.127982 0
0.0470637 0.119178 0
0.0729483 0.111031 0
0.0986147 0.103414 0
0.123615 0.0961452 0
0.147591 0.0890475 0
0.170235 0.0819724 0
0.191263 0.0748119 0
0.21042 0.0675004 0
0.227476 0.0600087 0
0.242239 0.0523312 0
0.254551 0.044464 0
0.264286 0.036374 0
0.271339 0.027956 0
0.275591 0.018974 0
0.276869 0.0089815 0
0.274877 -0.00279781 0
0.269024 -0.0177042 0
0.258181 -0.037715 0
0.240492 -0.065511 0
0.213248 -0.104772 0
0.172984 -0.160768 0
0.116367 -0.241508 0
0.0443097 -0.35699 0
-0.0213045 -0.49217 0
-0.0238085 -0.458414 0
-0.0191499 0.112528 0
-0.0443994 0.156709 0