# vtk DataFile Version 2.0
Lid-driven cavity
ASCII
DATASET STRUCTURED_POINTS
DIMENSIONS 32 32 1
ORIGIN 0.015625 0.015625 0
SPACING 0.03125 0.03125 1
POINT_DATA 1024
SCALARS pressure double 1
LOOKUP_TABLE default
3.38786
3.35849
3.32788
3.31292
3.32136
3.35587
3.41673
3.50346
3.61545
3.75224
3.91336
4.09819
4.30568
4.5341
4.78078
5.04197
5.31274
5.58716
5.85818
6.11782
6.3578
6.57034
6.7489
6.88897
6.98863
7.04884
7.0734
7.06859
7.04274
7.006
6.97031
6.94943
3.41724
3.38721
3.36514
3.35928
3.37449
3.41292
3.47525
3.56147
3.67136
3.80466
3.96101
4.13981
4.34002
4.55994
4.79699
5.04756
5.30699
5.56975
5.82927
6.07802
6.30828
6.51277
6.68548
6.82231
6.92164
6.98458
7.01484
7.01835
7.00265
6.97636
6.94868
6.92854
3.44825
3.40755
3.38496
3.38244
3.40142
3.44254
3.50598
3.5917
3.69965
3.82978
3.98192
4.15567
4.35019
4.564
4.79476
5.0391
5.29258
5.54994
5.80478
6.04964
6.27676
6.47883
6.64978
6.78548
6.88438
6.94767
6.97918
6.98479
6.97167
6.94741
6.91923
6.89294
3.46158
3.40827
3.38133
3.37874
3.39912
3.44151
3.50529
3.59019
3.69617
3.82335
3.97183
4.14151
4.33189
4.54185
4.76943
5.01159
5.2641
5.52174
5.77806
6.02529
6.2553
6.46026
6.63356
6.77067
6.86977
6.93213
6.9618
6.96495
6.94888
6.92089
6.88731
6.85265
3.44453
3.37945
3.34705
3.34268
3.36287
3.4053
3.46861
3.55222
3.65608
3.78047
3.92578
4.0923
4.27998
4.48817
4.71539
4.95903
5.21513
5.47829
5.74178
5.99736
6.23618
6.44949
6.62969
6.77138
6.87222
6.93334
6.95914
6.95645
6.93327
6.89743
6.85551
6.81208
3.38814
3.31277
3.27497
3.26811
3.28716
3.32872
3.39084
3.47267
3.57418
3.69583
3.83834
4.00242
4.18855
4.39665
4.62582
4.87402
5.13771
5.41114
5.68717
5.95702
6.21084
6.43857
6.63113
6.7817
6.88692
6.94756
6.96839
6.95727
6.92357
6.87648
6.8238
6.77124
3.28547
3.2012
3.15843
3.14888
3.16622
3.20624
3.26653
3.34609
3.4449
3.56364
3.70338
3.8653
4.05044
4.2594
4.49197
4.74683
5.02116
5.30884
5.60239
5.89246
6.16804
6.41736
6.62926
6.79479
6.90885
6.9713
6.98717
6.96565
6.91824
6.85646
6.79026
6.72718
3.13066
3.03862
2.99134
2.97904
2.99429
3.03219
3.09002
3.16663
3.26211
3.37734
3.51373
3.67295
3.85666
4.06618
4.30217
4.56423
4.85052
5.15522
5.47047
5.78656
6.09133
6.37098
6.61155
6.80095
6.93119
7.00026
7.01292
6.97992
6.91565
6.83515
6.75159
6.6751
2.91853
2.81957
2.76813
2.75301
2.76575
2.80089
2.8554
2.92808
3.01905
3.12941
3.26087
3.41558
3.59582
3.80373
4.04099
4.30837
4.60532
4.92761
5.26706
5.61424
5.9561
6.27662
6.5583
6.78458
6.94288
7.0276
7.04201
6.99811
6.91406
6.80993
6.70365
6.60898
2.6444
2.53918
2.48378
2.4656
2.47525
2.50671
2.55666
2.62383
2.70833
2.81136
2.93489
3.08145
3.25393
3.4554
3.6887
3.95611
4.25875
4.5954
4.95851
5.33988
5.72634
6.09983
6.43869
6.72032
6.92516
7.04121
7.06784
7.0171
6.91143
6.77792
6.6417
6.52188
2.30409
2.19314
2.13378
2.11209
2.11777
2.14423
2.18785
2.24714
2.32213
2.41397
2.52471
2.65713
2.81469
3.00138
3.22145
3.47909
3.77781
4.11968
4.5008
4.91551
5.35201
5.79103
6.20654
6.56835
6.8469
7.01972
7.07802
7.03096
6.9048
6.73596
6.56052
6.406
1.89396
1.77771
1.71425
1.68837
1.68887
1.70855
1.74338
1.79154
1.85275
1.92791
2.01886
2.12843
2.26047
2.41985
2.61243
2.84477
3.12353
3.45445
3.84048
4.28103
4.7682
5.28343
5.797
6.27003
6.65967
6.92758
7.05028
7.02829
6.88908
6.68036
6.4545
6.25273
1.41106
1.28988
1.22203
1.19108
1.18488
1.19557
1.21856
1.25148
1.29347
1.34482
1.40683
1.48201
1.57428
1.68927
1.83453
2.01947
2.25479
2.55123
2.91876
3.36767
3.89772
4.49425
5.12596
5.74541
6.2936
6.71009
6.94772
6.98872
6.85528
6.60647
6.3178
6.05283
0.853225
0.727427
0.65481
0.61779
0.603245
0.602511
0.61023
0.623209
0.639648
0.65879
0.680929
0.707718
0.742694
0.79193
0.864616
0.973354
1.13382
1.36352
1.67933
2.1058
2.65844
3.33093
4.09442
4.89502
5.65641
6.29014
6.71436
6.8789
6.7882
6.50829
6.14488
5.79695
0.219148
0.0889592
0.0112113
-0.0327864
-0.0571991
-0.0716685
-0.0825739
-0.0942776
-0.109949
-0.131899
-0.161468
-0.198496
-0.240471
-0.281431
-0.31085
-0.312816
-0.265963
-0.144712
0.0775584
0.436994
0.976155
1.7037
2.59947
3.60818
4.63808
5.56894
6.27293
6.64918
6.6641
6.3782
5.93168
5.47712
-0.491614
-0.626109
-0.709244
-0.76077
-0.796015
-0.825834
-0.857941
-0.89826
-0.95181
-1.02303
-1.11558
-1.23155
-1.37027
-1.52665
-1.68947
-1.83974
-1.95005
-1.98534
-1.90605
-1.66906
-1.19737
-0.455624
0.552746
1.77938
3.1234
4.43359
5.52741
6.23275
6.4493
6.20735
5.67791
5.08936
-1.27884
-1.4178
-1.50631
-1.56518
-1.61109
-1.65642
-1.71061
-1.78156
-1.87665
-2.00303
-2.16735
-2.37476
-2.62735
-2.92189
-3.24736
-3.58249
-3.89409
-4.13714
-4.25768
-4.19935
-3.86476
-3.17096
-2.09526
-0.667704
1.01332
2.77337
4.37282
5.54966
6.10127
5.98747
5.39115
4.63842
-2.14208
-2.28601
-2.37945
-2.44426
-2.4988
-2.55744
-2.63178
-2.7322
-2.86888
-3.05223
-3.2925
-3.59864
-3.97635
-4.42535
-4.93601
-5.48596
-6.03728
-6.53545
-6.91155
-7.08891
-6.96522
-6.39999
-5.32927
-3.75176
-1.74666
0.50476
2.71392
4.51798
5.57432
5.71553
5.09365
4.14561
-3.08132
-3.23132
-3.32854
-3.39606
-3.45446
-3.52075
-3.60932
-3.73353
-3.90681
-4.14322
-4.45705
-4.86157
-5.36683
-5.97636
-6.68323
-7.4655
-8.28224
-9.07108
-9.749
-10.218
-10.3669
-10.0198
-9.04859
-7.40736
-5.13601
-2.39755
0.492393
3.07376
4.83223
5.40314
4.83353
3.66169
-4.09819
-4.25615
-4.35498
-4.41933
-4.47301
-4.53666
-4.62835
-4.76499
-4.96367
-5.24231
-5.6194
-6.11274
-6.73701
-7.50026
-8.39919
-9.41392
-10.5027
-11.5981
-12.6057
-13.4083
-13.8757
-13.8256
-13.0596
-11.4691
-9.03489
-5.8703
-2.2814
1.19884
3.86927
5.09324
4.70305
3.28849
-5.19755
-5.3665
-5.46319
-5.51478
-5.54996
-5.59475
-5.67211
-5.80328
-6.0093
-6.31198
-6.73383
-7.2969
-8.02036
-8.91677
-9.98706
-11.2146
-12.5592
-13.9513
-15.2899
-16.4435
-17.2589
-17.5524
-17.089
-15.6752
-13.2157
-9.74104
-5.49898
-1.047
2.73955
4.88643
4.86764
3.21435
-6.3901
-6.57454
-6.66279
-6.68655
-6.6825
-6.68476
-6.72305
-6.82384
-7.0124
-7.31414
-7.75499
-8.3605
-9.15354
-10.1506
-11.3565
-12.7587
-14.3199
-15.9721
-17.6121
-19.1007
-20.2677
-20.9192
-20.8191
-19.6954
-17.3584
-13.727
-8.93613
-3.49654
1.59151
4.97758
5.60966
3.76973
-7.6963
-7.90242
-7.97146
-7.9441
-7.87051
-7.79735
-7.76367
-7.80233
-7.9428
-8.21345
-8.64258
-9.25791
-10.0846
-11.1417
-12.4373
-13.9622
-15.6832
-17.5359
-19.4195
-21.1941
-22.6824
-23.6764
-23.943
-23.1827
-21.0917
-17.4593
-12.2555
-5.85714
0.701062
5.70013
7.38823
5.50792
-9.15313
-9.38856
-9.4192
-9.30426
-9.11732
-8.92432
-8.77709
-8.71574
-8.77348
-8.98039
-9.36544
-9.95664
-10.7795
-11.8543
-13.1908
-14.7822
-16.5985
-18.5797
-20.6298
-22.6136
-24.3557
-25.6425
-26.2327
-25.8361
-24.0533
-20.5304
-15.0325
-7.71107
0.494454
7.57011
10.9113
9.31136
-10.8266
-11.0982
-11.0543
-10.7932
-10.4294
-10.0577
-9.74639
-9.54264
-9.4817
-9.59315
-9.90433
-10.4415
-11.2292
-12.2866
-13.6233
-15.233
-17.0873
-19.1289
-21.2661
-23.3699
-25.2713
-26.7621
-27.5932
-27.4623
-25.95
-22.5516
-16.7969
-8.53421
1.55392
11.3177
17.2081
16.5187
-12.8364
-13.1421
-12.9518
-12.4472
-11.8133
-11.1862
-10.6517
-10.2614
-10.0482
-10.0374
-10.2514
-10.7126
-11.4421
-12.4568
-13.7641
-15.3566
-17.2052
-19.2537
-21.4128
-23.5574
-25.5242
-27.1109
-28.0702
-28.0677
-26.6539
-23.2053
-17.0742
-7.72375
4.60535
17.8926
27.6834
29.0646
-15.4101
-15.7107
-15.2231
-14.3072
-13.2654
-12.2847
-11.4621
-10.8438
-10.4521
-10.3012
-10.4048
-10.7786
-11.4386
-12.3975
-13.6593
-15.2137
-17.0298
-19.05
-21.185
-23.3101
-25.2625
-26.8394
-27.7924
-27.7651
-26.2228
-22.4257
-15.4987
-4.62576
10.4937
28.43
44.1272
49.6258
-19.0074
-19.1332
-18.0157
-16.3927
-14.7417
-13.2883
-12.1148
-11.239
-10.6573
-10.3633
-10.3576
-10.6467
-11.2396
-12.1437
-13.3583
-14.8692
-16.642
-18.6162
-20.6997
-22.7641
-24.6408
-26.1167
-26.9256
-26.6936
-24.7614
-20.2386
-11.9869
1.19619
20.1384
44.1619
68.6346
81.778
-24.6292
-23.9536
-21.4512
-18.6062
-16.0744
-14.0296
-12.468
-11.3365
-10.5794
-10.1626
-10.0696
-10.2954
-10.8411
-11.7074
-12.8883
-14.3649
-16.0982
-18.0232
-20.0426
-22.0208
-23.7775
-25.0788
-25.6231
-24.997
-22.3906
-16.7081
-6.52378
9.81533
33.9061
66.2389
103.321
130.154
-34.6099
-30.8586
-25.2962
-20.4414
-16.7741
-14.1076
-12.1967
-10.8682
-10.0049
-9.53446
-9.41778
-9.63655
-10.1831
-11.0518
-12.2317
-13.6989
-15.4099
-17.2946
-19.2495
-21.1291
-22.7368
-23.8103
-23.9981
-22.8076
-19.2671
-12.0592
0.548829
20.7512
51.2025
94.5092
150.121
200.422
-54.3873
-39.3665
-27.7459
-20.2254
-15.5114
-12.5099
-10.5628
-9.31044
-8.55965
-8.2079
-8.20372
-8.52356
-9.15719
-10.0972
-11.3307
-12.8316
-14.5537
-16.4233
-18.331
-20.1218
-21.5824
-22.4193
-22.2246
-20.3891
-15.8227
-7.05528
7.91883
31.885
68.9278
125.512
210.959
314.964
-102.079
-41.9994
-21.5239
-13.5859
-9.92339
-7.98217
-6.87828
-6.26867
-6.00893
-6.03778
-6.33287
-6.89039
-7.71334
-8.8032
-10.1529
-11.7405
-13.522
-15.4247
-17.3383
-19.1042
-20.4998
-21.2119
-20.7904
-18.5432
-13.3819
-3.78639
12.3819
38.2831
79.2038
146.144
268.314
521.49
VECTORS velocity double
4.04755e-05 -4.04755e-05 0
1.16888e-05 6.92621e-05 0
-0.000255845 0.000198271 0
-0.000751116 0.000297 0
-0.00140867 0.000360553 0
-0.00216624 0.000397014 0
-0.00297867 0.000415418 0
-0.003816 0.000421918 0
-0.0046572 0.000419278 0
-0.00548405 0.000407566 0
-0.00627676 0.000385145 0
-0.00701151 0.000349604 0
-0.00765966 0.00029855 0
-0.00818847 0.000230262 0
-0.00856299 0.000144253 0
-0.00874895 4.17111e-05 0
-0.00871626 -7.44064e-05 0
-0.00844276 -0.000199087 0
-0.00791934 -0.000324338 0
-0.00715489 -0.000440108 0
-0.00617959 -0.000535197 0
-0.0050458 -0.000598594 0
-0.003826 -0.000621208 0
-0.00260706 -0.000597728 0
-0.00148116 -0.00052817 0
-0.000534324 -0.000418669 0
0.000165594 -0.000281249 0
0.000579679 -0.000132837 0
0.000706335 6.18113e-06 0
0.000588931 0.000111223 0
0.000326538 0.00015117 0
8.76838e-05 8.76837e-05 0
-7.38484e-05 -7.1026e-06 0
-0.00049007 0.000480897 0
-0.00144178 0.00100588 0
-0.00287186 0.00141475 0
-0.00465892 0.00168742 0
-0.00668033 0.00184912 0
-0.0088357 0.00193111 0
-0.011048 0.00195585 0
-0.0132554 0.00193397 0
-0.0154018 0.00186615 0
-0.0174292 0.00174665 0
-0.0192733 0.00156695 0
-0.0208628 0.00131884 0
-0.0221211 0.000997106 0
-0.0229709 0.000601731 0
-0.0233403 0.000139564 0
-0.0231703 -0.000374943 0
-0.0224236 -0.000918734 0
-0.021093 -0.00145874 0
-0.0192088 -0.00195439 0
-0.0168439 -0.00236103 0
-0.0141156 -0.00263488 0
-0.0111808 -0.00273952 0
-0.00822613 -0.00265302 0
-0.00545074 -0.00237416 0
-0.00304403 -0.00192623 0
-0.00116051 -0.00135713 0
0.000104492 -0.00073605 0
0.000735787 -0.000148558 0
0.000813351 0.000305802 0
0.000521544 0.00051079 0
0.000156547 0.000331914 0
-0.000233035 0.000299781 0
-0.00113536 0.00149256 0
-0.00284173 0.00265229 0
-0.0051949 0.00355159 0
-0.00801862 0.00416136 0
-0.0111507 0.00452867 0
-0.0144563 0.00471251 0
-0.0178258 0.00475631 0
-0.021166 0.00468111 0
-0.0243893 0.0044887 0
-0.0274062 0.00416842 0
-0.0301214 0.00370451 0
-0.0324333 0.0030826 0
-0.0342369 0.00229526 0
-0.03543 0.00134645 0
-0.0359206 0.000254897 0
-0.0356371 -0.000943766 0
-0.0345377 -0.00219599 0
-0.0326196 -0.00343029 0
-0.0299262 -0.00456044 0
-0.0265542 -0.00549176 0
-0.0226558 -0.00613093 0
-0.0184352 -0.00639886 0
-0.0141382 -0.00624534 0
-0.0100326 -0.00566288 0
-0.00638023 -0.00469656 0
-0.00340387 -0.00344667 0
-0.00125215 -0.00206323 0
3.03234e-05 -0.000735147 0
0.000524311 0.000320839 0
0.000445972 0.000865899 0
0.000149657 0.000638117 0
-0.000392394 0.00092521 0
-0.00178779 0.00316486 0
-0.00425245 0.00515101 0
-0.00750223 0.00665582 0
-0.0112949 0.00767348 0
-0.0154317 0.00828543 0
-0.0197529 0.00858256 0
-0.0241273 0.00863023 0
-0.0284398 0.00845985 0
-0.0325807 0.00807411 0
-0.0364383 0.00745754 0
-0.0398956 0.00658791 0
-0.0428309 0.00544632 0
-0.0451214 0.00402568 0
-0.0466497 0.00233741 0
-0.0473117 0.000416603 0
-0.0470265 -0.00167423 0
-0.0457457 -0.00384568 0
-0.0434617 -0.00598282 0
-0.0402158 -0.00794713 0
-0.0361078 -0.00958505 0
-0.0313015 -0.0107424 0
-0.0260252 -0.0112843 0
-0.0205634 -0.0111186 0
-0.0152381 -0.0102206 0
-0.0103776 -0.00865178 0
-0.00627578 -0.00656959 0
-0.00314676 -0.00422105 0
-0.00108283 -0.00192373 0
-2.60685e-05 -4.13313e-05 0
0.00024442 0.00103592 0
0.000110528 0.000898302 0
-0.000540857 0.00185846 0
-0.00240351 0.00548966 0
-0.00559223 0.00847958 0
-0.00969179 0.0106766 0
-0.0143886 0.0121421 0
-0.0194474 0.0130125 0
-0.0246886 0.0134179 0
-0.0299668 0.0134475 0
-0.0351541 0.0131425 0
-0.0401278 0.0125061 0
-0.0447629 0.0115183 0
-0.0489296 0.0101511 0
-0.0524936 0.00838242 0
-0.0553204 0.00620695 0
-0.0572809 0.00364494 0
-0.0582587 0.000748866 0
-0.058159 -0.00239141 0
-0.0569167 -0.00565157 0
-0.0545036 -0.00887409 0
-0.0509395 -0.0118658 0
-0.0463062 -0.0144077 0
-0.040759 -0.0162733 0
-0.0345333 -0.0172555 0
-0.0279414 -0.0172011 0
-0.0213571 -0.0160478 0
-0.0151831 -0.0138591 0
-0.00980273 -0.0108444 0
-0.00552045 -0.00735752 0
-0.00250341 -0.00386824 0
-0.000738894 -0.000918097 0
-1.74326e-05 0.000920735 0
6.05574e-05 0.00106939 0
-0.000676603 0.00307592 0
-0.00297025 0.0084285 0
-0.00683119 0.0125904 0
-0.0117207 0.0155549 0
-0.0172561 0.017496 0
-0.023168 0.0186293 0
-0.0292611 0.0191352 0
-0.0353823 0.0191296 0
-0.0413988 0.0186642 0
-0.0471831 0.0177424 0
-0.0526049 0.016339 0
-0.0575283 0.0144203 0
-0.0618115 0.0119604 0
-0.0653102 0.00895456 0
-0.0678823 0.00542989 0
-0.0693937 0.00145314 0
-0.0697259 -0.00286316 0
-0.0687826 -0.00736542 0
-0.0664974 -0.0118586 0
-0.0628481 -0.0160947 0
-0.0578777 -0.0197825 0
-0.0517134 -0.0226098 0
-0.0445818 -0.0242764 0
-0.0368137 -0.0245402 0
-0.0288351 -0.0232716 0
-0.021136 -0.0205083 0
-0.0142155 -0.016496 0
-0.00850522 -0.0116985 0
-0.00428636 -0.0067632 0
-0.00162302 -0.00245099 0
-0.000332663 0.000441807 0
3.85874e-06 0.0011338 0
-0.000799575 0.0045521 0
-0.00348461 0.011931 0
-0.00795833 0.0174226 0
-0.0135716 0.0212255 0
-0.01988 0.0236692 0
-0.0265853 0.0250734 0
-0.0334817 0.0256806 0
-0.0404149 0.0256386 0
-0.0472539 0.0250107 0
-0.0538736 0.0237999 0
-0.0601453 0.0219749 0
-0.0659314 0.0194939 0
-0.071085 0.0163237 0
-0.075451 0.012456 0
-0.078869 0.00791862 0
-0.0811787 0.00278548 0
-0.0822256 -0.00281633 0
-0.0818683 -0.00871287 0
-0.0799853 -0.0146794 0
-0.0764939 -0.0204145 0
-0.0713786 -0.0255485 0
-0.0647188 -0.0296679 0
-0.0567144 -0.0323544 0
-0.0477015 -0.0332431 0
-0.0381534 -0.0320954 0
-0.0286565 -0.0288805 0
-0.0198527 -0.0238482 0
-0.0123454 -0.0175639 0
-0.00658343 -0.0108786 0
-0.00275461 -0.00482776 0
-0.000728623 -0.00049776 0
-6.47183e-05 0.00107294 0
-0.000909396 0.00626107 0
-0.00394392 0.0159416 0
-0.00896654 0.0229083 0
-0.0152332 0.0276196 0
-0.0222484 0.0305987 0
-0.0296924 0.0322931 0
-0.0373549 0.0330199 0
-0.0450863 0.032964 0
-0.0527641 0.032202 0
-0.0602717 0.0307359 0
-0.0674863 0.0285252 0
-0.0742723 0.0255156 0
-0.0804775 0.0216607 0
-0.0859326 0.01694 0
-0.0904527 0.0113728 0
-0.0938411 0.00502929 0
-0.0958948 -0.00195949 0
-0.0964153 -0.00940647 0
-0.0952158 -0.0170684 0
-0.0921385 -0.0245941 0
-0.087092 -0.0315307 0
-0.0800889 -0.0373486 0
-0.0712807 -0.0414862 0
-0.0609882 -0.0434168 0
-0.0497163 -0.0427416 0
-0.0381449 -0.0393025 0
-0.027077 -0.033298 0
-0.017333 -0.0253654 0
-0.00959612 -0.016576 0
-0.00424632 -0.00830899 0
-0.00125067 -0.00203816 0
-0.000154732 0.000853493 0
-0.00100486 0.00817533 0
-0.00434339 0.0204004 0
-0.009846 0.0289748 0
-0.0166909 0.0346647 0
-0.0243433 0.0382213 0
-0.0324697 0.0402408 0
-0.040862 0.0411269 0
-0.0493809 0.0411073 0
-0.0579175 0.0402731 0
-0.0663685 0.0386234 0
-0.0746207 0.0361046 0
-0.0825415 0.0326429 0
-0.0899724 0.0281694 0
-0.0967262 0.0226403 0
-0.102587 0.0160534 0
-0.107313 0.00846319 0
-0.110645 -7.65863e-06 0
-0.112319 -0.00916351 0
-0.112077 -0.018753 0
-0.10968 -0.0283839 0
-0.104948 -0.0375191 0
-0.0978088 -0.0455029 0
-0.0883412 -0.0516077 0
-0.076821 -0.055108 0
-0.0637553 -0.055388 0
-0.0498952 -0.0520875 0
-0.0362049 -0.0452713 0
-0.023757 -0.0355839 0
-0.0135428 -0.0243085 0
-0.00622814 -0.0132409 0
-0.0019529 -0.00437709 0
-0.000277588 0.000421173 0
-0.00108389 0.0102641 0
-0.00467533 0.0252416 0
-0.0105816 0.0355424 0
-0.0179215 0.0422819 0
-0.0261328 0.0464679 0
-0.0348762 0.048864 0
-0.043951 0.0499709 0
-0.0532329 0.0500641 0
-0.0626304 0.0492504 0
-0.0720568 0.0475234 0
-0.0814105 0.0448105 0
-0.0905623 0.0410096 0
-0.0993464 0.0360177 0
-0.107555 0.0297545 0
-0.114938 0.0221826 0
-0.121205 0.0133271 0
-0.126036 0.00329215 0
-0.1291 -0.00772561 0
-0.130066 -0.0194667 0
-0.128618 -0.0315155 0
-0.124481 -0.0432561 0
-0.117483 -0.053904 0
-0.107604 -0.0625528 0
-0.0950399 -0.0682474 0
-0.0802536 -0.0701006 0
-0.0640238 -0.0674648 0
-0.047448 -0.0601603 0
-0.0318627 -0.0487281 0
-0.0186364 -0.0346048 0
-0.00883735 -0.0200584 0
-0.00289457 -0.00777769 0
-0.000445849 -0.000302265 0
-0.0011437 0.0124917 0
-0.00492946 0.0303912 0
-0.0111527 0.0425223 0
-0.0188925 0.0503818 0
-0.0275705 0.0552573 0
-0.0368474 0.0580949 0
-0.0465341 0.0595014 0
-0.0565236 0.0598049 0
-0.0667443 0.0591279 0
-0.0771274 0.0574554 0
-0.0875838 0.0546887 0
-0.0979885 0.0506879 0
-0.108169 0.0453036 0
-0.117897 0.0384053 0
-0.126889 0.0299068 0
-0.13481 0.0197911 0
-0.141284 0.00813384 0
-0.14591 -0.0048773 0
-0.148297 -0.0189623 0
-0.148057 -0.0337076 0
-0.144825 -0.0484326 0
-0.138319 -0.062233 0
-0.128397 -0.0740236 0
-0.115134 -0.0826043 0
-0.0988925 -0.0867717 0
-0.0804111 -0.0855049 0
-0.0608599 -0.0782472 0
-0.0418144 -0.0652718 0
-0.0250658 -0.048036 0
-0.0122135 -0.0292786 0
-0.00414011 -0.0125736 0
-0.000673538 -0.00142165 0
-0.00118114 0.0148165 0
-0.00509398 0.035765 0
-0.0115354 0.0498132 0
-0.0195651 0.0588604 0
-0.028598 0.0644896 0
-0.0382994 0.0678409 0
-0.0484927 0.0696353 0
-0.059089 0.0702568 0
-0.0700361 0.0698439 0
-0.081283 0.0683693 0
-0.0927538 0.065702 0
-0.104329 0.0616544 0
-0.115831 0.0560197 0
-0.127019 0.0486051 0
-0.137583 0.0392636 0
-0.147153 0.0279252 0
-0.155307 0.0146272 0
-0.161591 -0.000460244 0
-0.165555 -0.0170284 0
-0.166756 -0.0346796 0
-0.164752 -0.0526965 0
-0.15915 -0.070078 0
-0.149671 -0.0855785 0
-0.136227 -0.0977573 0
-0.119016 -0.105071 0
-0.0986527 -0.106051 0
-0.0762839 -0.0996212 0
-0.053652 -0.0855753 0
-0.0329712 -0.0651619 0
-0.0164917 -0.0414845 0
-0.00576015 -0.0191726 0
-0.000977111 -0.0030723 0
-0.0011932 0.0171908 0
-0.00515748 0.0412677 0
-0.0117059 0.0573003 0
-0.0198988 0.0675959 0
-0.0291528 0.0740409 0
-0.0391389 0.0779771 0
-0.0496918 0.0802454 0
-0.060738 0.0812892 0
-0.0722427 0.0812633 0
-0.0841712 0.0801254 0
-0.0964611 0.0777066 0
-0.109001 0.0737646 0
-0.121616 0.0680271 0
-0.134061 0.0602301 0
-0.146015 0.0501569 0
-0.157089 0.0376759 0
-0.166837 0.0227775 0
-0.17477 0.00560695 0
-0.18039 -0.0135115 0
-0.183211 -0.0341735 0
-0.182744 -0.055674 0
-0.178494 -0.0769524 0
-0.170037 -0.0966405 0
-0.157089 -0.113088 0
-0.139623 -0.124416 0
-0.118028 -0.128664 0
-0.0933057 -0.124099 0
-0.0672416 -0.109793 0
-0.0424099 -0.0864564 0
-0.0217885 -0.057291 0
-0.00782961 -0.0280564 0
-0.00137583 -0.00542524 0
-0.00117771 0.0195617 0
-0.0051114 0.0467948 0
-0.0116452 0.0648554 0
-0.0198599 0.0764484 0
-0.0291792 0.0837616 0
-0.0392786 0.088342 0
-0.0500001 0.0911548 0
-0.0612806 0.0927064 0
-0.0730984 0.0931686 0
-0.085433 0.0924833 0
-0.0982357 0.0904412 0
-0.111408 0.0867419 0
-0.124786 0.0810435 0
-0.138135 0.073007 0
-0.151142 0.0623416 0
-0.163425 0.0488483 0
-0.174536 0.0324638 0
-0.18398 0.0132979 0
-0.191227 -0.00833567 0
-0.195773 -0.0319815 0
-0.197104 -0.0570029 0
-0.194649 -0.0823286 0
-0.187843 -0.106527 0
-0.176193 -0.1278 0
-0.159388 -0.143976 0
-0.137494 -0.152593 0
-0.111222 -0.151164 0
-0.0822306 -0.137785 0
-0.0533137 -0.112214 0
-0.0281788 -0.07729 0
-0.0104216 -0.0397735 0
-0.00189125 -0.00869232 0
-0.00113405 0.0218735 0
-0.00495286 0.0522356 0
-0.0113453 0.0723409 0
-0.0194301 0.0852624 0
-0.0286413 0.093478 0
-0.0386554 0.0987391 0
-0.0493149 0.102139 0
-0.0605606 0.104249 0
-0.0723786 0.105262 0
-0.0847593 0.105105 0
-0.0976683 0.103531 0
-0.111025 0.100181 0
-0.124689 0.0946461 0
-0.138449 0.0865136 0
-0.152025 0.0754188 0
-0.165066 0.0610942 0
-0.177153 0.0434166 0
-0.187815 0.0224505 0
-0.196538 -0.00151806 0
-0.202811 -0.0279793 0
-0.20611 -0.0563759 0
-0.205833 -0.0856884 0
-0.201303 -0.114502 0
-0.191816 -0.140962 0
-0.17674 -0.162695 0
-0.155727 -0.176781 0
-0.129046 -0.179928 0
-0.0980206 -0.169037 0
-0.0654507 -0.142448 0
-0.0356685 -0.101973 0
-0.0135981 -0.0549185 0
-0.00254612 -0.0131297 0
-0.00106392 0.0240715 0
-0.00468748 0.0574799 0
-0.0108146 0.0796161 0
-0.0186159 0.0938732 0
-0.0275364 0.102999 0
-0.0372483 0.108944 0
-0.0475868 0.112932 0
-0.0584891 0.115604 0
-0.0699427 0.117178 0
-0.0819462 0.117573 0
-0.0944804 0.116506 0
-0.107488 0.11357 0
-0.120861 0.108293 0
-0.134431 0.100197 0
-0.147969 0.0888499 0
-0.161184 0.0739176 0
-0.17372 0.0552167 0
-0.185167 0.0327587 0
-0.195061 0.00679096 0
-0.202906 -0.022169 0
-0.208202 -0.0535913 0
-0.210369 -0.0865834 0
-0.208662 -0.119844 0
-0.202186 -0.151584 0
-0.189978 -0.179358 0
-0.171204 -0.199904 0
-0.145549 -0.209142 0
-0.113774 -0.202622 0
-0.0784041 -0.176803 0
-0.0441699 -0.131634 0
-0.0173999 -0.0740976 0
-0.0033634 -0.0190392 0
-0.000971944 0.0261074 0
-0.00433194 0.0624276 0
-0.0100836 0.0865473 0
-0.0174572 0.102117 0
-0.0259072 0.112126 0
-0.0350948 0.118717 0
-0.0448404 0.123243 0
-0.0550703 0.126424 0
-0.0657685 0.12851 0
-0.0769388 0.129416 0
-0.0885778 0.128837 0
-0.100656 0.126325 0
-0.113107 0.121361 0
-0.125819 0.113411 0
-0.138631 0.101987 0
-0.151335 0.0866987 0
-0.16367 0.067307 0
-0.175323 0.0437679 0
-0.185922 0.0162744 0
-0.195019 -0.014709 0
-0.202179 -0.0485961 0
-0.206892 -0.0846987 0
-0.208401 -0.121927 0
-0.205675 -0.158702 0
-0.197437 -0.192687 0
-0.182337 -0.220449 0
-0.159351 -0.237239 0
-0.128459 -0.237192 0
-0.0915768 -0.214487 0
-0.0534882 -0.166273 0
-0.0218394 -0.0978767 0
-0.00436671 -0.0267693 0
-0.00086617 0.0279455 0
-0.00391606 0.0669994 0
-0.00920888 0.09302 0
-0.0160339 0.109843 0
-0.0238501 0.120666 0
-0.0323012 0.127815 0
-0.0411871 0.132776 0
-0.050418 0.136352 0
-0.0599708 0.138833 0
-0.0698533 0.140145 0
-0.0800793 0.139972 0
-0.090651 0.13784 0
-0.101548 0.133195 0
-0.112724 0.125465 0
-0.124098 0.114121 0
-0.135561 0.0987311 0
-0.146963 0.0790123 0
-0.158119 0.0548709 0
-0.168788 0.0264392 0
-0.178666 -0.00589764 0
-0.187402 -0.0415123 0
-0.194559 -0.0799124 0
-0.199454 -0.120309 0
-0.201003 -0.161495 0
-0.197679 -0.201456 0
-0.187626 -0.236834 0
-0.169042 -0.262424 0
-0.140921 -0.271019 0
-0.104222 -0.254241 0
-0.0633233 -0.205506 0
-0.0268998 -0.126716 0
-0.00558322 -0.0367192 0
-0.000758482 0.0295701 0
-0.00348449 0.0711506 0
-0.00827697 0.098954 0
-0.0144708 0.116928 0
-0.0215204 0.128447 0
-0.0290477 0.136012 0
-0.0368288 0.141246 0
-0.0447569 0.145042 0
-0.0528017 0.147741 0
-0.0609764 0.149294 0
-0.0693138 0.149387 0
-0.0778503 0.147534 0
-0.086617 0.143165 0
-0.095634 0.135687 0
-0.104908 0.124547 0
-0.114433 0.109291 0
-0.124186 0.0896076 0
-0.134124 0.0653698 0
-0.144176 0.0366612 0
-0.154211 0.00379367 0
-0.164008 -0.0326709 0
-0.173256 -0.0723485 0
-0.181415 -0.114819 0
-0.187451 -0.1594 0
-0.189688 -0.204638 0
-0.185838 -0.247555 0
-0.173314 -0.282811 0
-0.149979 -0.302086 0
-0.115492 -0.29436 0
-0.0732837 -0.248495 0
-0.0325421 -0.160893 0
-0.00704946 -0.0493519 0
-0.000665102 0.0309937 0
-0.00309876 0.0748867 0
-0.00740758 0.104319 0
-0.0129407 0.123289 0
-0.0191346 0.135329 0
-0.0255862 0.143109 0
-0.0320513 0.148395 0
-0.0384109 0.15218 0
-0.0446326 0.154869 0
-0.0507392 0.156448 0
-0.0567866 0.156618 0
-0.0628487 0.154901 0
-0.0690089 0.150725 0
-0.075356 0.143491 0
-0.0819823 0.132643 0
-0.0889839 0.117721 0
-0.0964616 0.0984079 0
-0.10452 0.0745666 0
-0.113259 0.046255 0
-0.122745 0.0137207 0
-0.132936 -0.0226094 0
-0.143699 -0.0623996 0
-0.154689 -0.105618 0
-0.165028 -0.152225 0
-0.173045 -0.201559 0
-0.176163 -0.251366 0
-0.171095 -0.296593 0
-0.154518 -0.328215 0
-0.124493 -0.332742 0
-0.0829065 -0.293908 0
-0.0387142 -0.200414 0
-0.00881814 -0.0652195 0
-0.000607658 0.0322665 0
-0.00284066 0.0782806 0
-0.00675848 0.109152 0
-0.0116685 0.1289 0
-0.0169689 0.141213 0
-0.0222342 0.148942 0
-0.0272108 0.154004 0
-0.0317804 0.1575 0
-0.0359205 0.15991 0
-0.0396727 0.161266 0
-0.043122 0.161297 0
-0.0463831 0.159545 0
-0.0495931 0.155451 0
-0.0529074 0.148426 0
-0.0564989 0.137926 0
-0.0605595 0.123501 0
-0.065301 0.104847 0
-0.070957 0.0818414 0
-0.0777812 0.0545433 0
-0.0860293 0.0231664 0
-0.0958962 -0.0119965 0
-0.107448 -0.0506984 0
-0.120546 -0.0932319 0
-0.134573 -0.140245 0
-0.148046 -0.192051 0
-0.158333 -0.247469 0
-0.161649 -0.302241 0
-0.153556 -0.347238 0
-0.130317 -0.366984 0
-0.0916663 -0.339903 0
-0.0453539 -0.244923 0
-0.0109614 -0.0849991 0
-0.000615623 0.0334897 0
-0.00281936 0.0814941 0
-0.00653432 0.113571 0
-0.010936 0.133792 0
-0.0153583 0.146043 0
-0.0193634 0.153382 0
-0.0227119 0.157889 0
-0.0253101 0.160783 0
-0.0271648 0.162622 0
-0.0283508 0.163492 0
-0.0289906 0.16316 0
-0.0292437 0.161197 0
-0.0293008 0.157067 0
-0.0293804 0.150204 0
-0.0297298 0.140089 0
-0.0306279 0.126297 0
-0.0323841 0.108549 0
-0.0353395 0.0867509 0
-0.0398678 0.0609863 0
-0.046372 0.0314757 0
-0.0552537 -0.0015573 0
-0.0667877 -0.0380516 0
-0.0810461 -0.0785227 0
-0.0977314 -0.124241 0
-0.115737 -0.176576 0
-0.132683 -0.235711 0
-0.144632 -0.298734 0
-0.146277 -0.357194 0
-0.132044 -0.394499 0
-0.098953 -0.38413 0
-0.0523684 -0.293593 0
-0.0135645 -0.109525 0
-0.000731577 0.0348369 0
-0.00318557 0.0848046 0
-0.00700261 0.117793 0
-0.011091 0.138061 0
-0.0146928 0.149799 0
-0.0173838 0.156323 0
-0.0189794 0.159893 0
-0.0194482 0.161847 0
-0.0188544 0.16282 0
-0.0173246 0.16295 0
-0.0150289 0.162045 0
-0.0121743 0.15971 0
-0.00900474 0.155441 0
-0.00579751 0.148702 0
-0.00286784 0.139011 0
-0.000574132 0.125979 0
0.000687604 0.109362 0
0.000488306 0.0890935 0
-0.00163127 0.0652916 0
-0.00615641 0.0381998 0
-0.013588 0.00803186 0
-0.0243654 -0.0253294 0
-0.0387506 -0.0626013 0
-0.056754 -0.105474 0
-0.077801 -0.156291 0
-0.100108 -0.216744 0
-0.120071 -0.285788 0
-0.131995 -0.356573 0
-0.128676 -0.412672 0
-0.103993 -0.42373 0
-0.0595711 -0.344999 0
-0.0167024 -0.139792 0
-0.00102187 0.0365904 0
-0.00415772 0.088641 0
-0.00851946 0.122135 0
-0.0125574 0.141845 0
-0.0154072 0.152467 0
-0.0167141 0.157653 0
-0.0164139 0.159858 0
-0.0145899 0.160526 0
-0.0113995 0.160356 0
-0.00704187 0.159527 0
-0.00174306 0.157875 0
0.00424271 0.15504 0
0.0106214 0.150563 0
0.0170507 0.143944 0
0.0231433 0.134747 0
0.0284703 0.122622 0
0.0325644 0.107362 0
0.0349311 0.0889255 0
0.0350664 0.067444 0
0.0324772 0.0431619 0
0.0266969 0.0162817 0
0.0172691 -0.0133741 0
0.00378953 -0.0466919 0
-0.014053 -0.0855373 0
-0.0362414 -0.132992 0
-0.0618704 -0.192107 0
-0.0882594 -0.264072 0
-0.110056 -0.344569 0
-0.119002 -0.419049 0
-0.105688 -0.45535 0
-0.0665532 -0.396935 0
-0.0203919 -0.176886 0
-0.00159694 0.0392092 0
-0.00606614 0.0936273 0
-0.0115624 0.127007 0
-0.0158335 0.145282 0
-0.0179427 0.153988 0
-0.0177149 0.157211 0
-0.0153048 0.15759 0
-0.0109768 0.156642 0
-0.00501888 0.155092 0
0.00228394 0.15313 0
0.0106435 0.150613 0
0.0197485 0.147211 0
0.0292536 0.142508 0
0.0387677 0.136056 0
0.0478502 0.12746 0
0.0560175 0.116415 0
0.062751 0.102742 0
0.0675158 0.0864142 0
0.0697863 0.0675495 0
0.0690775 0.0463543 0
0.0649663 0.0229808 0
0.0570748 -0.00275376 0
0.0450437 -0.0318015 0
0.0285485 -0.0660899 0
0.007203 -0.108906 0
-0.0192209 -0.164141 0
-0.0495379 -0.235332 0
-0.0796773 -0.321372 0
-0.101387 -0.41159 0
-0.102352 -0.475158 0
-0.072459 -0.446155 0
-0.0245044 -0.221782 0
-0.00264743 0.0434536 0
-0.00941611 0.100621 0
-0.0167456 0.132839 0
-0.0214295 0.148405 0
-0.0226167 0.154162 0
-0.020511 0.154703 0
-0.0156224 0.152798 0
-0.00846927 0.149953 0
0.000499911 0.146855 0
0.0109015 0.143663 0
0.0223822 0.140239 0
0.0345865 0.136275 0
0.0471343 0.131391 0
0.0596035 0.12519 0
0.0715245 0.117323 0
0.0823863 0.107523 0
0.0916503 0.0956361 0
0.098773 0.0816326 0
0.103237 0.0655963 0
0.104586 0.0476671 0
0.102448 0.0279174 0
0.0965227 0.00612653 0
0.0864895 -0.0186176 0
0.07196 -0.0482491 0
0.0524315 -0.0858723 0
0.0272979 -0.135616 0
-0.00392119 -0.202321 0
-0.039735 -0.288431 0
-0.0735168 -0.38904 0
-0.0913291 -0.478931 0
-0.0756166 -0.487988 0
-0.0286169 -0.274904 0
-0.0044997 0.0506007 0
-0.0149409 0.110684 0
-0.0247202 0.139885 0
-0.0295939 0.150916 0
-0.0292178 0.152461 0
-0.0244986 0.149579 0
-0.0164674 0.145003 0
-0.00595956 0.140087 0
0.00640658 0.135385 0
0.0201576 0.13098 0
0.0348947 0.126704 0
0.0502443 0.122256 0
0.0658182 0.117288 0
0.0811919 0.11145 0
0.0958983 0.104435 0
0.109434 0.0960124 0
0.121277 0.0860398 0
0.130909 0.0744742 0
0.137848 0.0613517 0
0.141678 0.046733 0
0.142067 0.0306002 0
0.138756 0.0126804 0
0.13147 -0.00785154 0
0.119766 -0.032782 0
0.10296 -0.0650046 0
0.0800682 -0.108459 0
0.0498361 -0.168027 0
0.0114984 -0.248573 0
-0.0321471 -0.35147 0
-0.0684851 -0.462351 0
-0.0729434 -0.515822 0
-0.0317458 -0.335266 0
-0.00766622 0.0627666 0
-0.0234869 0.124779 0
-0.0356153 0.147697 0
-0.0393679 0.151731 0
-0.0358007 0.147704 0
-0.0269742 0.140791 0
-0.0145837 0.133369 0
0.000209603 0.12642 0
0.0166497 0.120246 0
0.0342223 0.114796 0
0.0525359 0.109838 0
0.0712405 0.105068 0
0.089979 0.100164 0
0.108363 0.0948158 0
0.125968 0.0887583 0
0.142336 0.0817854 0
0.156996 0.0737633 0
0.169486 0.0646285 0
0.179378 0.0543672 0
0.186299 0.0429671 0
0.189942 0.0303327 0
0.19005 0.0161515 0
0.186332 -0.000318532 0
0.178293 -0.020572 0
0.165065 -0.0471806 0
0.145266 -0.0835924 0
0.116899 -0.134294 0
0.0777302 -0.204799 0
0.027081 -0.30095 0
-0.027638 -0.421814 0
-0.0589753 -0.520564 0
-0.0318429 -0.398855 0
-0.0127044 0.0831372 0
-0.0350408 0.142566 0
-0.0468529 0.153851 0
-0.0455775 0.148054 0
-0.0352112 0.137447 0
-0.0193945 0.126405 0
-0.000460004 0.116431 0
0.0202352 0.107869 0
0.0419334 0.100658 0
0.0641911 0.0945536 0
0.0867057 0.0892521 0
0.109215 0.0844403 0
0.131448 0.0798199 0
0.153103 0.0751207 0
0.173839 0.0701129 0
0.193286 0.0646156 0
0.211058 0.0585012 0
0.226769 0.0516895 0
0.240054 0.0441291 0
0.250582 0.0357568 0
0.258048 0.0264328 0
0.262153 0.015839 0
0.262533 0.00333186 0