# vtk DataFile Version 2.0
Lid-driven cavity
ASCII
DATASET STRUCTURED_POINTS
DIMENSIONS 32 32 1
ORIGIN 0.015625 0.015625 0
SPACING 0.03125 0.03125 1
POINT_DATA 1024
SCALARS pressure double 1
LOOKUP_TABLE default
54.2469
54.0171
53.6019
53.1303
52.6819
52.2975
51.9979
51.7981
51.7151
51.77
51.9861
52.3859
52.9856
53.791
54.7917
55.9584
57.24
58.5665
59.846
60.9743
61.8477
62.3793
62.5145
62.2442
61.61
60.7014
59.6421
58.573
57.6341
56.9454
56.5918
56.5813
54.4766
54.2366
53.8884
53.5074
53.1434
52.8254
52.5713
52.3964
52.3178
52.3557
52.5322
52.8683
53.3799
54.0737
54.9424
55.9611
57.0851
58.2541
59.3846
60.3819
61.152
61.6164
61.7271
61.4787
60.9129
60.1141
59.1956
58.278
57.4771
56.8865
56.5725
56.5707
54.9078
54.5638
54.2027
53.854
53.5351
53.2555
53.0232
52.8487
52.7475
52.7401
52.8496
53.0995
53.5097
54.0917
54.8447
55.7508
56.7719
57.8526
58.9126
59.8584
60.5955
61.0433
61.1517
60.9135
60.3699
59.6049
58.7304
57.8643
57.1091
56.547
56.236
56.2219
55.3951
54.9017
54.4823
54.1254
53.8163
53.543
53.3006
53.0934
52.9348
52.8462
52.8546
52.9888
53.2761
53.7368
54.3791
55.194
56.1513
57.1963
58.2493
59.2132
59.986
60.4773
60.6265
60.4179
59.8877
59.1203
58.2309
57.3419
56.5589
55.9592
55.5985
55.5203
55.8005
55.1404
54.6402
54.2476
53.9168
53.6146
53.3236
53.0419
52.7819
52.5674
52.431
52.4098
52.5413
52.8575
53.3785
54.1069
55.0217
56.0688
57.169
58.2193
59.1056
59.7204
59.9837
59.8613
59.3768
58.6095
57.679
56.7182
55.845
55.1458
54.6793
54.4886
55.9894
55.1611
54.5707
54.123
53.741
53.3724
52.9885
52.583
52.1682
51.7722
51.435
51.2046
51.1311
51.2609
51.6291
52.2526
53.1239
54.194
55.3871
56.5946
57.687
58.5328
59.0218
59.0885
58.7294
58.0087
57.0457
55.9873
54.9744
54.1169
53.4889
53.1428
55.8275
54.8384
54.1552
53.6365
53.1748
52.6996
52.1734
51.5867
50.9536
50.3077
49.6983
49.1857
48.8355
48.7115
48.8672
49.3382
50.1348
51.2253
52.5436
53.9788
55.3851
56.6006
57.4726
57.8864
57.7922
57.2202
56.2778
55.1253
53.9374
52.8652
52.0186
51.4752
55.181
54.0447
53.2688
52.6642
52.0928
51.4676
50.7439
49.9105
48.984
48.0047
47.0319
46.1404
45.4134
44.9356
44.7838
45.0175
45.6704
46.7439
48.1962
49.9205
51.7571
53.5091
54.969
55.9524
56.3358
56.0875
55.2808
54.081
52.7053
51.3692
50.2457
49.4542
53.9216
52.6562
51.7887
51.0817
50.368
49.5456
48.563
47.4082
46.1006
44.6869
43.2375
41.8426
40.6057
39.6365
39.0406
38.9086
39.3044
40.2765
41.8333
43.8839
46.2612
48.7334
51.0276
52.8687
54.0271
54.3698
53.8997
52.7648
51.2261
49.5889
48.1247
47.0257
51.934
50.5616
49.6032
48.7752
47.8834
46.8118
45.503
43.9432
42.1538
40.1877
38.1259
36.0749
34.1612
32.5239
31.3041
30.6318
30.6097
31.3384
32.917
35.2869
38.287
41.6568
45.0551
48.0974
50.4139
51.722
51.9001
51.0358
49.4197
47.4689
45.6
44.1209
49.1256
47.6715
46.6221
45.6525
44.544
43.168
41.4606
39.4052
37.0237
34.3733
31.5449
28.6617
25.8752
23.3585
21.2955
19.8655
19.2246
19.5062
20.9567
23.5743
27.2232
31.63
36.3912
41.005
44.932
47.6872
48.9542
48.69
47.1729
44.9401
42.6081
40.6624
45.4357
43.9281
42.7875
41.6545
40.2898
38.5533
36.374
33.7306
30.6432
27.1709
23.4129
19.5088
15.6365
12.0072
8.85368
6.41415
4.909
4.51447
5.61112
8.32416
12.5649
18.0704
24.3956
30.9292
36.9472
41.7151
44.641
45.4531
44.3353
41.9229
39.0862
36.5747
40.8442
39.3135
38.0822
36.7655
35.108
32.9591
30.2399
26.9226
23.0223
18.5978
13.7539
8.64544
3.47747
-1.49869
-5.99605
-9.71053
-12.3483
-13.6615
-13.2034
-10.6281
-5.95415
0.597861
8.57627
17.2901
25.8404
33.2157
38.4717
40.9861
40.7196
38.3327
34.9842
31.7991
35.3772
33.855
32.5364
31.0208
29.0415
26.4393
23.1267
19.0671
14.2681
8.78483
2.72542
-3.74214
-10.3867
-16.9161
-22.9866
-28.2231
-32.2498
-34.7327
-35.2132
-33.0718
-28.2261
-20.8182
-11.2583
-0.263943
11.1339
21.6545
29.9474
34.9125
36.1126
34.0905
30.2807
26.3117
29.1082
27.6265
26.2287
24.5085
22.1932
19.1164
15.1817
10.3419
4.59492
-2.01092
-9.36705
-17.2949
-25.5394
-33.7689
-41.5837
-48.5366
-54.1647
-58.0345
-59.7203
-58.3397
-53.6675
-45.734
-34.8546
-21.7006
-7.35663
6.68352
18.6557
26.8755
30.3036
29.142
25.0059
20.1481
22.1547
20.7448
19.2828
17.3669
14.7227
11.1787
6.62907
1.01489
-5.67809
-13.4106
-22.0765
-31.4895
-41.3739
-51.3619
-61.0018
-69.7781
-77.1451
-82.5741
-85.6086
-85.3036
-81.1913
-73.1719
-61.4197
-46.4782
-29.3764
-11.7124
4.39561
16.6262
23.1362
23.4897
19.2732
13.4368
14.6693
13.3599
11.8579
9.77448
6.83753
2.87094
-2.24072
-8.56959
-16.1438
-24.9351
-34.8423
-45.6743
-57.1381
-68.8348
-80.2663
-90.8569
-99.988
-107.047
-111.492
-112.479
-109.285
-101.665
-89.6218
-73.4952
-54.1349
-33.0873
-12.6885
4.1362
14.5855
17.2433
13.3227
6.44374
6.82609
5.64147
4.13421
1.93539
-1.22302
-5.52274
-11.0907
-18.014
-26.3363
-36.0424
-47.0377
-59.1288
-72.0087
-85.252
-98.3219
-110.592
-121.383
-130.015
-135.862
-138.209
-136.19
-129.418
-117.711
-101.154
-80.3008
-56.4662
-31.997
-10.2832
4.85693
10.6903
7.58177
-0.366671
-1.19607
-2.23888
-3.70532
-5.93934
-9.20696
-13.7001
-19.5617
-26.8972
-35.7683
-46.1742
-58.0284
-71.1363
-85.18
-99.7119
-114.163
-127.868
-140.101
-150.132
-157.276
-160.907
-160.166
-154.569
-143.757
-127.548
-106.118
-80.375
-52.4265
-25.8828
-5.50477
4.3906
2.74888
-6.24336
-9.23268
-10.127
-11.4944
-13.6515
-16.8699
-21.3627
-27.2981
-34.806
-43.9697
-54.8041
-67.231
-81.0556
-95.9504
-111.449
-126.957
-141.778
-155.154
-166.325
-174.579
-179.298
-179.779
-175.498
-165.967
-150.756
-129.639
-102.986
-72.4126
-41.4277
-15.5131
-0.70613
-0.0868057
-10.0169
-17.153
-17.9063
-19.1032
-21.034
-23.993
-28.235
-33.9699
-41.3624
-50.5217
-61.4794
-74.1644
-88.3804
-103.791
-119.913
-136.132
-151.726
-165.917
-177.927
-187.036
-192.626
-194.14
-191.105
-182.989
-169.164
-149.03
-122.362
-90.0752
-55.2248
-23.6661
-3.1251
0.722097
-9.90176
-24.8801
-25.5177
-26.4553
-27.9647
-30.3949
-34.0774
-39.2896
-46.2449
-55.0839
-65.8537
-78.4857
-92.7782
-108.385
-124.809
-141.417
-157.471
-172.176
-184.744
-194.455
-200.699
-202.995
-200.971
-194.132
-181.735
-162.874
-136.748
-103.443
-65.2345
-27.9243
-0.72636
7.60458
-3.20952
-32.4135
-32.982
-33.5437
-34.3751
-35.9365
-38.6919
-43.0208
-49.2016
-57.4116
-67.7072
-80.0213
-94.1431
-109.706
-126.192
-142.949
-159.222
-174.204
-187.1
-197.193
-203.884
-206.706
-205.354
-199.415
-188.132
-170.369
-144.817
-110.697
-69.2465
-25.7534
9.41564
24.0442
14.0392
-39.8617
-40.4291
-40.4456
-40.2517
-40.5173
-41.9202
-44.9844
-50.0807
-57.4121
-67.0358
-78.8654
-92.6638
-108.037
-124.442
-141.203
-157.547
-172.658
-185.736
-196.06
-203.032
-206.189
-205.167
-199.53
-188.653
-171.345
-145.781
-110.357
-65.0688
-14.2331
31.0778
54.8724
47.6022
-47.5048
-48.1481
-47.3419
-45.6324
-44.0624
-43.6359
-45.0665
-48.7995
-55.0578
-63.8782
-75.1353
-88.5479
-103.682
-119.96
-136.679
-153.05
-168.243
-181.452
-191.943
-199.106
-202.455
-201.572
-195.838
-184.461
-166.193
-139.308
-101.314
-50.6514
9.7981
68.8594
106.524
105.582
-55.933
-56.6859
-54.5525
-50.6007
-46.503
-43.7109
-43.1577
-45.319
-50.4032
-58.3909
-69.0884
-82.1499
-97.0869
-113.279
-129.995
-146.426
-161.73
-175.085
-185.738
-193.042
-196.459
-195.522
-189.375
-176.901
-156.542
-126.044
-82.7203
-24.0811
49.6135
128.019
187.167
199.044
-66.3767
-67.0541
-62.6017
-55.2818
-47.7668
-42.0393
-39.2132
-39.704
-43.6326
-50.8702
-61.12
-73.9498
-88.8045
-105.016
-121.822
-138.393
-153.871
-167.417
-178.246
-185.657
-189.024
-187.765
-180.922
-166.748
-143.173
-107.219
-55.1529
16.5308
108.529
214.119
306.566
342.679
-81.5176
-81.1473
-72.3092
-59.8093
-47.7411
-38.5303
-33.2585
-32.1256
-35.05
-41.7272
-51.7213
-64.4965
-79.4236
-95.7854
-112.788
-129.582
-145.296
-159.067
-170.073
-177.537
-180.719
-178.846
-170.949
-154.426
-126.469
-83.1289
-19.265
70.5457
189.449
332.346
475.377
555.518
-107.523
-102.429
-84.7082
-64.0719
-46.0724
-32.9671
-25.281
-22.7586
-24.9729
-31.3746
-41.3614
-54.2857
-69.4457
-86.0782
-103.362
-120.434
-136.408
-150.4
-161.543
-168.978
-171.824
-169.09
-159.545
-140.026
-106.548
-53.9955
24.5238
137.066
290.821
486.537
703.111
861.622
-159.123
-136.003
-99.6577
-66.4892
-41.3712
-24.3976
-14.7214
-11.3652
-13.3859
-19.9373
-30.2448
-43.5597
-59.1215
-76.135
-93.7641
-111.138
-127.363
-141.539
-152.753
-160.061
-162.425
-158.597
-146.935
-123.743
-83.9109
-21.0608
73.6663
211.709
406.612
671.126
999.816
1289.55
-270.201
-181.254
-108.989
-59.6479
-28.0299
-9.03185
0.748345
3.46516
0.559958
-6.90894
-18.0754
-32.153
-48.3693
-65.9312
-84.0121
-101.752
-118.264
-132.638
-143.927
-151.108
-152.991
-148.061
-134.213
-107.179
-61.3406
10.7905
119.842
280.889
516.251
861.906
1370.88
1983.08
-546.245
-195.284
-71.2392
-19.1972
6.53755
19.5721
24.6224
23.7432
18.0949
8.50368
-4.32854
-19.7299
-37.0107
-55.4401
-74.2397
-92.5865
-109.618
-124.434
-136.074
-143.473
-145.346
-140
-124.928
-95.8909
-47.1525
29.2551
144.783
316.722
574.595
981.317
1707.04
3196.93
VECTORS velocity double
8.33426e-05 -8.33426e-05 0
0.000170293 -3.60832e-06 0
3.65323e-05 0.000137369 0
-0.000367401 0.000266564 0
-0.00099995 0.000365984 0
-0.00180466 0.000438729 0
-0.00273572 0.000492333 0
-0.0037601 0.000532045 0
-0.00485131 0.000559164 0
-0.0059821 0.000571625 0
-0.00711902 0.000565296 0
-0.00821961 0.000535296 0
-0.00923203 0.00047712 0
-0.0100967 0.000387593 0
-0.01075 0.000265699 0
-0.011129 0.000113311 0
-0.011178 -6.43388e-05 0
-0.010855 -0.000258661 0
-0.0101408 -0.000455556 0
-0.00904809 -0.000637158 0
-0.00762724 -0.000783691 0
-0.00596745 -0.000876103 0
-0.00419202 -0.000899325 0
-0.00244704 -0.000845658 0
-0.000883889 -0.000717491 0
0.000362098 -0.000528497 0
0.00119349 -0.000302899 0
0.00156766 -7.12685e-05 0
0.00150775 0.00013118 0
0.00111109 0.000265483 0
0.000561053 0.000284549 0
0.000138252 0.000138251 0
6.68156e-08 -0.000166752 0
-0.000248232 0.000241149 0
-0.00105566 0.000833798 0
-0.00245852 0.00137693 0
-0.00437586 0.0018055 0
-0.00669743 0.00212549 0
-0.00932089 0.0023601 0
-0.012158 0.00252572 0
-0.0151264 0.00262511 0
-0.0181391 0.0026492 0
-0.0210963 0.00258188 0
-0.0238822 0.00240515 0
-0.0263661 0.00210363 0
-0.0284086 0.00166825 0
-0.0298695 0.00109931 0
-0.0306198 0.000408939 0
-0.0305534 -0.00037737 0
-0.0296023 -0.00121972 0
-0.0277506 -0.00206045 0
-0.0250466 -0.00282898 0
-0.0216108 -0.00344848 0
-0.0176367 -0.00384523 0
-0.0133822 -0.00396015 0
-0.00915076 -0.00376121 0
-0.00526165 -0.0032542 0
-0.00201062 -0.00248881 0
0.000373277 -0.00155787 0
0.00177049 -0.000587673 0
0.00220237 0.000275613 0
0.00184719 0.000872896 0
0.00104365 0.0010307 0
0.000291023 0.000567526 0
-0.000181202 1.43827e-05 0
-0.00100617 0.00113329 0
-0.00274614 0.00248906 0
-0.00532652 0.00370492 0
-0.00860337 0.00467172 0
-0.0124218 0.00539924 0
-0.0166386 0.00592663 0
-0.0211221 0.0062798 0
-0.0257419 0.00645921 0
-0.0303578 0.00644369 0
-0.0348135 0.00620033 0
-0.038936 0.00569504 0
-0.04254 0.00490171 0
-0.0454369 0.0038095 0
-0.0474463 0.00242846 0
-0.04841 0.000793634 0
-0.048206 -0.00103243 0
-0.0467642 -0.00295756 0
-0.0440791 -0.00485943 0
-0.0402213 -0.00659171 0
-0.0353465 -0.00799636 0
-0.0296972 -0.00892081 0
-0.0235966 -0.00923968 0
-0.0174307 -0.00887895 0
-0.0116171 -0.00783914 0
-0.00656011 -0.00621191 0
-0.00259501 -0.00418376 0
6.97881e-05 -0.00202379 0
0.00140485 -5.52163e-05 0
0.00159166 0.0013721 0
0.0010244 0.00190229 0
0.000307206 0.00116576 0
-0.000400747 0.000596331 0
-0.00191516 0.00289073 0
-0.00473279 0.00528921 0
-0.00860565 0.007358 0
-0.0132972 0.00898701 0
-0.0186015 0.0102066 0
-0.0243399 0.0110745 0
-0.0303467 0.0116223 0
-0.0364539 0.0118436 0
-0.0424803 0.0117016 0
-0.0482285 0.0111462 0
-0.0534863 0.0101295 0
-0.0580351 0.00862007 0
-0.0616599 0.0066128 0
-0.0641619 0.00413658 0
-0.0653719 0.00125908 0
-0.0651633 -0.00191047 0
-0.0634635 -0.00522105 0
-0.0602643 -0.00848031 0
-0.0556335 -0.0114593 0
-0.0497278 -0.0139094 0
-0.042799 -0.015586 0
-0.0351939 -0.0162802 0
-0.0273425 -0.0158557 0
-0.0197308 -0.0142876 0
-0.0128557 -0.0116956 0
-0.00716117 -0.00835969 0
-0.00296431 -0.0047095 0
-0.000384834 -0.00128404 0
0.000704836 0.00132444 0
0.000698701 0.00252334 0
0.000243818 0.00171678 0
-0.000635117 0.00163219 0
-0.00288572 0.00561988 0
-0.00684303 0.00933499 0
-0.0120539 0.012396 0
-0.0181708 0.0147575 0
-0.0249312 0.0165009 0
-0.0321239 0.0177113 0
-0.0395571 0.0184256 0
-0.0470366 0.0186271 0
-0.0543549 0.0182629 0
-0.0612887 0.0172669 0
-0.067604 0.015582 0
-0.0730647 0.0131771 0
-0.0774433 0.0100591 0
-0.0805321 0.00628106 0
-0.0821544 0.00194681 0
-0.0821745 -0.00278673 0
-0.0805046 -0.0077144 0
-0.0771123 -0.0125784 0
-0.0720367 -0.0170676 0
-0.0654058 -0.0208377 0
-0.0574515 -0.0235408 0
-0.0485168 -0.0248651 0
-0.0390539 -0.0245851 0
-0.029605 -0.0226188 0
-0.0207605 -0.019084 0
-0.0130906 -0.0143357 0
-0.00705408 -0.0089669 0
-0.00290173 -0.00375847 0
-0.000601613 0.000409094 0
0.000195852 0.00264736 0
0.00014145 0.00210205 0
-0.000872265 0.00313958 0
-0.00386465 0.00935549 0
-0.00896128 0.0146533 0
-0.0154941 0.0188214 0
-0.0229995 0.0219544 0
-0.0311584 0.0242232 0
-0.0397312 0.0257544 0
-0.0485085 0.026593 0
-0.0572815 0.0267123 0
-0.0658289 0.0260434 0
-0.0739162 0.0245073 0
-0.0813001 0.0220408 0
-0.0877374 0.0186164 0
-0.0929938 0.0142549 0
-0.0968528 0.00903315 0
-0.0991242 0.0030884 0
-0.0996516 -0.00338081 0
-0.0983162 -0.0101257 0
-0.0950425 -0.0168331 0
-0.0898183 -0.0231128 0
-0.0827204 -0.0285213 0
-0.0739367 -0.0325952 0
-0.0637842 -0.0348977 0
-0.0527188 -0.0350808 0
-0.041328 -0.0329629 0
-0.0302987 -0.0286138 0
-0.0203482 -0.0224263 0
-0.0121176 -0.0151435 0
-0.00604158 -0.00781024 0
-0.00223317 -0.00164766 0
-0.000424235 0.00209771 0
1.91851e-05 0.00226268 0
-0.00110239 0.00511423 0
-0.00480914 0.01408 0
-0.0109939 0.0212102 0
-0.0187797 0.0265831 0
-0.0275929 0.0305113 0
-0.037063 0.0332953 0
-0.0469285 0.0351207 0
-0.0569707 0.0360462 0
-0.066976 0.0360373 0
-0.0767212 0.035011 0
-0.0859706 0.0328764 0
-0.0944805 0.0295655 0
-0.102005 0.0250536 0
-0.108303 0.0193723 0
-0.113145 0.0126167 0
-0.116318 0.004949 0
-0.117632 -0.00340045 0
-0.116924 -0.0121488 0
-0.114066 -0.0209421 0
-0.108978 -0.029316 0
-0.101668 -0.036726 0
-0.0922596 -0.0425825 0
-0.0810213 -0.0463012 0
-0.0683887 -0.0473754 0
-0.0549756 -0.0454722 0
-0.041558 -0.0405514 0
-0.0290143 -0.0329829 0
-0.0182086 -0.0236233 0
-0.00982302 -0.013792 0
-0.00418373 -0.00511364 0
-0.00115105 0.000722063 0
-0.000119006 0.00216286 0
-0.00131524 0.00753185 0
-0.00567775 0.0197316 0
-0.0128546 0.0289201 0
-0.0217784 0.0355828 0
-0.0317783 0.0403246 0
-0.0424413 0.0436151 0
-0.0534913 0.0457164 0
-0.0647076 0.0467089 0
-0.0758807 0.046553 0
-0.0867933 0.0451531 0
-0.0972162 0.0424066 0
-0.106909 0.0382384 0
-0.115626 0.0326221 0
-0.123117 0.0255926 0
-0.129132 0.0172535 0
-0.133428 0.00778134 0
-0.135775 -0.00257295 0
-0.135961 -0.0134975 0
-0.133798 -0.0246148 0
-0.129134 -0.0353952 0
-0.121896 -0.045195 0
-0.112125 -0.053293 0
-0.100013 -0.0589402 0
-0.0859465 -0.0614359 0
-0.0705314 -0.0602399 0
-0.054608 -0.0551246 0
-0.0392118 -0.0463496 0
-0.0254603 -0.0348138 0
-0.0143522 -0.0220951 0
-0.00651533 -0.0102867 0
-0.00200804 -0.00164488 0
-0.000277072 0.00176678 0
-0.00149986 0.0103469 0
-0.00642872 0.0262079 0
-0.0144601 0.037652 0
-0.0243651 0.0456798 0
-0.0353925 0.0512549 0
-0.0470964 0.0550518 0
-0.0591929 0.0574263 0
-0.0714654 0.0584879 0
-0.0837144 0.058196 0
-0.0957346 0.0564428 0
-0.107307 0.0531123 0
-0.118199 0.0481175 0
-0.128162 0.0414229 0
-0.136936 0.0330566 0
-0.144251 0.0231199 0
-0.149832 0.0117919 0
-0.153403 -0.000665666 0
-0.154708 -0.0139142 0
-0.1535 -0.0275686 0
-0.149558 -0.0410477 0
-0.14272 -0.0536188 0
-0.132928 -0.0644323 0
-0.120274 -0.0725662 0
-0.105052 -0.077099 0
-0.0878147 -0.0772288 0
-0.0694207 -0.0724531 0
-0.0510315 -0.0628065 0
-0.0340256 -0.0491142 0
-0.01978 -0.0331484 0
-0.00933154 -0.0175186 0
-0.00304326 -0.00520852 0
-0.000466756 0.00102295 0
-0.00164517 0.013492 0
-0.0070212 0.0333678 0
-0.0157312 0.0472336 0
-0.0264219 0.0566939 0
-0.0382802 0.0631264 0
-0.0508362 0.0674403 0
-0.0638028 0.0701008 0
-0.0769717 0.0712547 0
-0.0901568 0.0708633 0
-0.103168 0.0688068 0
-0.1158 0.0649527 0
-0.127828 0.0591964 0
-0.139005 0.0514842 0
-0.149063 0.041828 0
-0.157714 0.030315 0
-0.164654 0.0171172 0
-0.169572 0.0024987 0
-0.172166 -0.0131805 0
-0.172143 -0.0295324 0
-0.169221 -0.0459483 0
-0.163152 -0.0616256 0
-0.153767 -0.0756019 0
-0.14103 -0.0867882 0
-0.1251 -0.0940289 0
-0.10642 -0.0962159 0
-0.0857964 -0.0924835 0
-0.0644568 -0.082505 0
-0.0440132 -0.0668653 0
-0.0262592 -0.0473969 0
-0.0127562 -0.0272216 0
-0.00431887 -0.0102311 0
-0.000703003 -0.000146805 0
-0.00174092 0.016878 0
-0.00741802 0.0410348 0
-0.0165966 0.0574552 0
-0.0278424 0.0684088 0
-0.0402991 0.0757265 0
-0.0534794 0.0805765 0
-0.0670954 0.0835472 0
-0.0809482 0.08483 0
-0.0948668 0.0843918 0
-0.108678 0.0821007 0
-0.122192 0.0778047 0
-0.135195 0.0713755 0
-0.147447 0.0627343 0
-0.158678 0.0518672 0
-0.16859 0.0388391 0
-0.176863 0.0238058 0
-0.18316 0.00702553 0
-0.187143 -0.0111313 0
-0.188488 -0.0302593 0
-0.18687 -0.0497607 0
-0.181961 -0.0687915 0
-0.173477 -0.0863047 0
-0.161232 -0.101068 0
-0.145211 -0.111699 0
-0.125679 -0.116758 0
-0.103308 -0.114936 0
-0.0792986 -0.105401 0
-0.0554268 -0.0882848 0
-0.0339 -0.0652582 0
-0.0169075 -0.0398558 0
-0.00590132 -0.0170403 0
-0.00100251 -0.00185232 0
-0.00177879 0.0203977 0
-0.00758909 0.0490025 0
-0.0169983 0.0680753 0
-0.028539 0.0805751 0
-0.0413293 0.0888073 0
-0.0548686 0.0942154 0
-0.0688676 0.0975233 0
-0.0831359 0.098975 0
-0.0975171 0.0985467 0
-0.111855 0.0960953 0
-0.125979 0.0914472 0
-0.139689 0.0844469 0
-0.15276 0.074985 0
-0.164929 0.0630167 0
-0.175905 0.0485778 0
-0.185366 0.0318011 0
-0.192969 0.0129305 0
-0.198356 -0.00766636 0
-0.201189 -0.0295464 0
-0.201118 -0.0521625 0
-0.19775 -0.0746662 0
-0.190695 -0.0959694 0
-0.179603 -0.11474 0
-0.164251 -0.129401 0
-0.144661 -0.138179 0
-0.121276 -0.139272 0
-0.0951523 -0.131198 0
-0.0681158 -0.113396 0
-0.0427289 -0.0870607 0
-0.0218755 -0.0558993 0
-0.00785322 -0.0260253 0
-0.00138224 -0.00423707 0
-0.00175353 0.0239301 0
-0.00751506 0.0570421 0
-0.0168979 0.0788278 0
-0.0284516 0.092917 0
-0.0412853 0.102089 0
-0.0548865 0.108074 0
-0.0689616 0.111739 0
-0.0833257 0.113391 0
-0.0978351 0.113021 0
-0.112352 0.110476 0
-0.126723 0.105561 0
-0.140772 0.0980934 0
-0.154295 0.0879311 0
-0.167051 0.0749965 0
-0.178771 0.0592939 0
-0.189154 0.0409286 0
-0.197871 0.0201235 0
-0.204578 -0.0027659 0
-0.208932 -0.0272599 0
-0.210574 -0.0528785 0
-0.209078 -0.078813 0
-0.203965 -0.103992 0
-0.194725 -0.127049 0
-0.1809 -0.146269 0
-0.162213 -0.159586 0
-0.138783 -0.164681 0
-0.111387 -0.159308 0
-0.0817475 -0.141962 0
-0.0526588 -0.11297 0
-0.0277031 -0.075799 0
-0.0102272 -0.0376238 0
-0.00185875 -0.00747806 0
-0.00166393 0.0273475 0
-0.00719059 0.0649128 0
-0.0162828 0.0894321 0
-0.027557 0.105141 0
-0.0401286 0.115271 0
-0.0534731 0.121838 0
-0.0672884 0.125866 0
-0.0813901 0.127731 0
-0.0956447 0.127445 0
-0.109931 0.124854 0
-0.124118 0.119742 0
-0.138059 0.111902 0
-0.151577 0.101163 0
-0.164471 0.0874155 0
-0.17651 0.0706347 0
-0.187437 0.0508974 0
-0.196967 0.0284018 0
-0.204789 0.00348388 0
-0.210576 -0.0233677 0
-0.213986 -0.0517189 0
-0.214599 -0.0808547 0
-0.211874 -0.10979 0
-0.205159 -0.137205 0
-0.193754 -0.161342 0
-0.177043 -0.179911 0
-0.154728 -0.190102 0
-0.127171 -0.188838 0
-0.095805 -0.173438 0
-0.063472 -0.142916 0
-0.0343711 -0.0999097 0
-0.0130607 -0.0522995 0
-0.00244737 -0.0117842 0
-0.00151354 0.030525 0
-0.00662692 0.0723754 0
-0.0151707 0.0996055 0
-0.0258758 0.116947 0
-0.0378779 0.128039 0
-0.0506402 0.135176 0
-0.0638465 0.139548 0
-0.0773081 0.141611 0
-0.0908982 0.141409 0
-0.104512 0.138789 0
-0.118044 0.133526 0
-0.131378 0.125392 0
-0.144379 0.114192 0
-0.156893 0.0997945 0
-0.168747 0.0821496 0
-0.179748 0.06131 0
-0.189677 0.0374478 0
-0.198288 0.0108705 0
-0.205293 -0.0179618 0
-0.210394 -0.0486131 0
-0.213221 -0.0805213 0
-0.213209 -0.112861 0
-0.209599 -0.144459 0
-0.201463 -0.173629 0
-0.187827 -0.197972 0
-0.16791 -0.214273 0
-0.141524 -0.21861 0
-0.10961 -0.206946 0
-0.07482 -0.176531 0
-0.0417901 -0.128425 0
-0.0163715 -0.0705129 0
-0.00316199 -0.0173935 0
-0.00131095 0.0333495 0
-0.00585318 0.0792065 0
-0.0136132 0.109078 0
-0.0234773 0.128043 0
-0.034616 0.140083 0
-0.0464799 0.147758 0
-0.0587337 0.152427 0
-0.0711796 0.15464 0
-0.0836949 0.154486 0
-0.096191 0.151823 0
-0.108589 0.146424 0
-0.12081 0.138048 0
-0.132763 0.12649 0
-0.144353 0.111601 0
-0.155475 0.0933188 0
-0.166013 0.0716794 0
-0.175839 0.0468335 0
-0.184797 0.019054 0
-0.192683 -0.0112542 0
-0.199273 -0.0436295 0
-0.204259 -0.077693 0
-0.207113 -0.112847 0
-0.207021 -0.148174 0
-0.202873 -0.182197 0
-0.193345 -0.212568 0
-0.177136 -0.235804 0
-0.153393 -0.247208 0
-0.122369 -0.241286 0
-0.0862385 -0.213112 0
-0.0498 -0.161313 0
-0.0201576 -0.0926865 0
-0.00401579 -0.0245713 0
-0.00106962 0.0357301 0
-0.00491641 0.0852149 0
-0.0116959 0.117609 0
-0.0204816 0.138162 0
-0.0304922 0.151114 0
-0.0411668 0.159266 0
-0.0521483 0.164154 0
-0.0632265 0.166437 0
-0.0742813 0.166259 0
-0.0852408 0.163505 0
-0.0960558 0.157955 0
-0.106685 0.149367 0
-0.117091 0.137531 0
-0.127238 0.122297 0
-0.137092 0.103599 0
-0.146625 0.0814707 0
-0.15581 0.0560524 0
-0.164605 0.0275888 0
-0.172935 -0.00357288 0
-0.180666 -0.0369898 0
-0.187578 -0.0724352 0
-0.193235 -0.109594 0
-0.196842 -0.147911 0
-0.197175 -0.186274 0
-0.192613 -0.222581 0
-0.181334 -0.25328 0
-0.161748 -0.27306 0
-0.133231 -0.274975 0
-0.0971774 -0.251606 0
-0.058178 -0.198256 0
-0.0243989 -0.119165 0
-0.00502341 -0.0336105 0
-0.000807364 0.037607 0
-0.00388045 0.0902578 0
-0.009538 0.125003 0
-0.0170585 0.147074 0
-0.0257198 0.160873 0
-0.034954 0.169415 0
-0.044382 0.174415 0
-0.0537809 0.176654 0
-0.063034 0.17635 0
-0.0720886 0.173428 0
-0.0809277 0.167686 0
-0.0895538 0.158892 0
-0.0979817 0.14684 0
-0.106238 0.13139 0
-0.114362 0.112484 0
-0.12241 0.0901676 0
-0.130457 0.0645868 0
-0.138583 0.0359756 0
-0.146849 0.00463554 0
-0.155244 -0.0290714 0
-0.16367 -0.0650162 0
-0.171832 -0.103194 0
-0.179033 -0.143503 0
-0.184034 -0.185349 0
-0.185008 -0.227094 0
-0.179669 -0.265384 0
-0.165666 -0.294545 0
-0.141353 -0.306322 0
-0.107037 -0.290629 0
-0.0666535 -0.238617 0
-0.0290657 -0.150171 0
-0.00620555 -0.0448395 0
-0.000545594 0.03896 0
-0.00282418 0.0942565 0
-0.00728997 0.131128 0
-0.0134241 0.154604 0
-0.0205713 0.169152 0
-0.0281637 0.177964 0
-0.0358051 0.182936 0
-0.0432637 0.18499 0
-0.0504304 0.184434 0
-0.0572763 0.181245 0
-0.0638219 0.175253 0
-0.0701172 0.166245 0
-0.0762328 0.15403 0
-0.0822577 0.138481 0
-0.0883006 0.11956 0
-0.0944951 0.0973348 0
-0.101003 0.0719747 0
-0.108014 0.0437239 0
-0.115718 0.0128567 0
-0.124245 -0.0203693 0
-0.133647 -0.0558913 0
-0.143801 -0.0940032 0
-0.154187 -0.135106 0
-0.163671 -0.179261 0
-0.170362 -0.225518 0
-0.17163 -0.271031 0
-0.164414 -0.310117 0
-0.14596 -0.333516 0
-0.115206 -0.328505 0
-0.0749249 -0.281406 0
-0.0341298 -0.185764 0
-0.00759554 -0.0586406 0
-0.000308765 0.0398144 0
-0.00184024 0.0972122 0
-0.00513175 0.13593 0
-0.00983831 0.160643 0
-0.015372 0.175794 0
-0.0211758 0.184718 0
-0.0268478 0.189495 0
-0.0321571 0.191199 0
-0.037011 0.190245 0
-0.0414124 0.186681 0
-0.0454256 0.180376 0
-0.0491533 0.171145 0
-0.0527253 0.158818 0
-0.0562937 0.143286 0
-0.0600327 0.124536 0
-0.0641419 0.102662 0
-0.0688524 0.077866 0
-0.0744297 0.0504203 0
-0.0811658 0.0206001 0
-0.0893357 -0.0114149 0
-0.0991357 -0.0456445 0
-0.110617 -0.0826152 0
-0.1235 -0.123224 0
-0.136889 -0.168271 0
-0.14901 -0.217697 0
-0.157089 -0.269505 0
-0.157495 -0.318452 0
-0.146379 -0.35475 0
-0.121079 -0.363325 0
-0.082669 -0.325277 0
-0.0395738 -0.225785 0
-0.00924619 -0.0754823 0
-0.000124557 0.0402477 0
-0.00103578 0.0992216 0
-0.00327376 0.13945 0
-0.00660354 0.165159 0
-0.0104948 0.180702 0
-0.0144159 0.189534 0
-0.01798 0.193915 0
-0.0209755 0.195084 0
-0.0233406 0.193579 0
-0.0251215 0.189529 0
-0.0264342 0.182854 0
-0.0274395 0.173401 0
-0.0283296 0.161025 0
-0.0293213 0.14564 0
-0.0306523 0.127253 0
-0.0325816 0.105984 0
-0.0353926 0.0820655 0
-0.039398 0.0558035 0
-0.0449433 0.0274983 0
-0.0523945 -0.00269193 0
-0.0620631 -0.0348987 0
-0.0741539 -0.0697893 0
-0.0886489 -0.108671 0
-0.105002 -0.153081 0
-0.121771 -0.203995 0
-0.136305 -0.260595 0
-0.144666 -0.318595 0
-0.142044 -0.368345 0
-0.124051 -0.393025 0
-0.0895294 -0.368508 0
-0.0453886 -0.269789 0
-0.0112328 -0.0959613 0
-2.58244e-05 0.0403981 0
-0.000538151 0.100495 0
-0.00196364 0.14184 0
-0.00406832 0.168204 0
-0.00635638 0.183837 0
-0.00834365 0.192307 0
-0.00969113 0.196053 0
-0.0102357 0.196486 0
-0.00996919 0.194276 0
-0.00899656 0.189641 0
-0.00749525 0.182554 0
-0.00568881 0.1729 0
-0.00383446 0.160562 0
-0.00221445 0.145475 0
-0.00112939 0.127664 0
-0.000894473 0.107268 0
-0.00183667 0.0845354 0
-0.00429347 0.0597958 0
-0.00861583 0.0333737 0
-0.0151743 0.00544236 0
-0.0243287 -0.0242099 0
-0.0363835 -0.0563326 0
-0.0515409 -0.0924754 0
-0.0696652 -0.1348 0
-0.089843 -0.18533 0
-0.109874 -0.244695 0
-0.1259 -0.310109 0
-0.132459 -0.372894 0
-0.12347 -0.415458 0
-0.0950674 -0.408998 0
-0.0515446 -0.316963 0
-0.0136468 -0.120841 0
-5.6081e-05 0.04048 0
-0.000509681 0.101379 0
-0.00150337 0.143375 0
-0.00263758 0.169907 0
-0.00341691 0.185201 0
-0.00343942 0.192954 0
-0.00246483 0.19578 0
-0.000421611 0.19526 0
0.00261347 0.1922 0
0.00645632 0.186901 0
0.0108547 0.179393 0
0.0155122 0.169596 0
0.0201039 0.157419 0
0.0242847 0.142816 0
0.0276969 0.125825 0
0.0299779 0.106591 0
0.03077 0.0853625 0
0.0297311 0.0624643 0
0.026542 0.0382166 0
0.0209033 0.0127966 0
0.0125002 -0.0140066 0
0.000999642 -0.0429806 0
-0.0139489 -0.0757215 0
-0.0325711 -0.114807 0
-0.0545942 -0.163121 0
-0.078599 -0.222867 0
-0.101299 -0.293211 0
-0.117109 -0.367422 0
-0.11853 -0.4285 0
-0.0986578 -0.444231 0
-0.0579205 -0.36599 0
-0.0165723 -0.15106 0
-0.000281659 0.0408177 0
-0.00117845 0.102391 0
-0.00228155 0.144459 0
-0.00279002 0.170466 0
-0.00217627 0.184808 0
-0.000180718 0.191374 0
0.00326537 0.19294 0
0.00807343 0.19125 0
0.0140303 0.187219 0
0.0208509 0.181219 0
0.0282022 0.173326 0
0.0357187 0.163489 0
0.0430145 0.151638 0
0.0496916 0.137739 0
0.0553475 0.121834 0
0.0595862 0.104062 0
0.0620327 0.0846526 0
0.0623489 0.063897 0
0.0602465 0.0420756 0
0.0554867 0.0193361 0
0.0478492 -0.0045055 0
0.0370963 -0.0302282 0
0.0229435 -0.0593726 0
0.00497129 -0.0945616 0
-0.0172357 -0.139137 0
-0.0432762 -0.196806 0
-0.0709588 -0.26889 0
-0.0953333 -0.351558 0
-0.108113 -0.430163 0
-0.0993103 -0.471243 0
-0.0641678 -0.414857 0
-0.0200382 -0.187671 0
-0.000815843 0.0419152 0
-0.00289338 0.104268 0
-0.00482168 0.145614 0
-0.00509389 0.170092 0
-0.00315661 0.182631 0
0.000994754 0.187404 0
0.00713408 0.187324 0
0.0149306 0.184261 0
0.0239963 0.179185 0
0.0339245 0.172504 0
0.0442984 0.164316 0
0.054692 0.154589 0
0.0646741 0.143261 0
0.0738119 0.130302 0
0.0816791 0.115748 0
0.0878677 0.0997201 0
0.0920046 0.0824108 0
0.0937695 0.0640577 0
0.0929091 0.0448778 0
0.0892385 0.0249641 0
0.0826157 0.0041267 0
0.0728674 -0.0183591 0
0.0597366 -0.0439581 0
0.0428363 -0.0751036 0
0.0216563 -0.115208 0
-0.00436823 -0.16867 0
-0.0347774 -0.238934 0
-0.0661696 -0.325747 0
-0.0905729 -0.418791 0
-0.0953991 -0.486592 0
-0.069482 -0.460568 0
-0.0239312 -0.23164 0
-0.00186214 0.0445932 0
-0.0062067 0.108012 0
-0.00982476 0.147416 0
-0.0101794 0.168917 0
-0.00682259 0.178512 0
-0.000208419 0.180757 0
0.00898525 0.178638 0
0.0200968 0.174039 0
0.0325285 0.16791 0
0.0457444 0.160635 0
0.059253 0.152303 0
0.0725868 0.142875 0
0.0852921 0.132287 0
0.0969274 0.120502 0
0.107069 0.10754 0
0.115321 0.0934879 0
0.121335 0.0784926 0
0.12482 0.0627253 0
0.125563 0.0463282 0
0.123419 0.0293277 0
0.118296 0.0115097 0
0.110077 -0.00777494 0
0.0985213 -0.0298557 0
0.0832168 -0.0570012 0
0.0635511 -0.0924646 0
0.0386772 -0.140515 0
0.00782983 -0.205833 0
-0.0281805 -0.291446 0
-0.0634982 -0.393371 0
-0.0842867 -0.486397 0
-0.0722364 -0.498731 0
-0.0278468 -0.283418 0
-0.00377953 0.0502349 0
-0.0119514 0.114887 0
-0.0181024 0.15031 0
-0.0185085 0.166783 0
-0.0132327 0.172013 0
-0.003517 0.170926 0
0.00933638 0.166422 0
0.024263 0.160217 0
0.0404412 0.153122 0
0.0572241 0.145424 0
0.0740736 0.137156 0
0.0905113 0.128251 0
0.106093 0.118625 0
0.120398 0.108224 0
0.133033 0.0970407 0
0.143643 0.0851249 0
0.151918 0.0725672 0
0.157611 0.0594712 0
0.160546 0.0459051 0
0.160609 0.0318319 0
0.157726 0.0170119 0
0.151806 0.000861184 0
0.14261 -0.0177401 0
0.129678 -0.0408803 0
0.112261 -0.0715025 0
0.0892022 -0.113544 0
0.0590411 -0.171795 0
0.0207736 -0.251206 0
-0.0234948 -0.354025 0
-0.0618429 -0.466607 0
-0.069395 -0.523019 0
-0.0308246 -0.342089 0
-0.00713703 0.0611514 0
-0.0211345 0.12614 0
-0.0300355 0.15411 0
-0.0294714 0.162826 0
-0.0209067 0.16213 0
-0.00682006 0.157007 0
0.0107289 0.149938 0
0.0302708 0.142231 0
0.0508036 0.134396 0
0.0716291 0.126541 0
0.0922144 0.118603 0
0.112114 0.110466 0
0.13093 0.102013 0
0.148295 0.0931648 0
0.163875 0.0838837 0
0.177371 0.0741771 0
0.188528 0.0640827 0
0.197147 0.0536429 0
0.203081 0.0428646 0
0.206227 0.0316639 0
0.2065 0.0197901 0
0.20378 0.00672285 0
0.197842 -0.00846847 0
0.188176 -0.0275533 0
0.173824 -0.0530606 0
0.153288 -0.088391 0
0.124462 -0.137961 0
0.0849974 -0.207308 0
0.0339624 -0.302619 0
-0.0219014 -0.4238 0
-0.0555509 -0.524624 0
-0.0308461 -0.40376 0
-0.012545 0.0808335 0
-0.0338946 0.141805 0
-0.0433154 0.156766 0
-0.0383338 0.154623 0
-0.0233405 0.146774 0
-0.00244105 0.137376 0
0.021597 0.127982 0
0.0470643 0.119179 0
0.0729489 0.111031 0
0.0986153 0.103414 0
0.123615 0.0961453 0
0.147592 0.0890475 0
0.170236 0.0819723 0
0.191264 0.0748119 0
0.21042 0.0675003 0
0.227477 0.0600086 0
0.242239 0.052331 0
0.254551 0.0444638 0
0.264287 0.0363739 0
0.271339 0.0279559 0
0.275591 0.0189739 0
0.276869 0.0089814 0
0.274877 -0.00279789 0
0.269024 -0.0177042 0
0.258181 -0.037715 0
0.240492 -0.0655111 0
0.213249 -0.104772 0
0.172984 -0.160768 0
0.116367 -0.241508 0
0.0443097 -0.35699 0
-0.0213045 -0.49217 0
-0.0238085 -0.458415 0
-0.0191499 0.112528 0