# vtk DataFile Version 2.0
Lid-driven cavity
ASCII
DATASET STRUCTURED_POINTS
DIMENSIONS 32 32 1
ORIGIN 0.015625 0.015625 0
SPACING 0.03125 0.03125 1
POINT_DATA 1024
SCALARS pressure double 1
LOOKUP_TABLE default
8.49466
8.44287
8.37473
8.3196
8.29242
8.29922
8.34174
8.42037
8.53555
8.68816
8.87933
9.1099
9.3798
9.68737
10.0287
10.3972
10.7834
11.1754
11.5581
11.9151
12.2296
12.4865
12.6751
12.7901
12.8333
12.8131
12.7441
12.6447
12.5356
12.4377
12.3706
12.3488
8.54646
8.49311
8.4399
8.402
8.38869
8.40458
8.45168
8.53104
8.64359
8.79048
8.97285
9.19151
9.44634
9.73576
10.0562
10.4015
10.763
11.1299
11.4886
11.8235
12.1194
12.3627
12.5434
12.6572
12.706
12.6981
12.6469
12.5688
12.4818
12.4028
12.3472
12.3269
8.61627
8.54271
8.4879
8.45621
8.45047
8.47208
8.52175
8.60022
8.70856
8.84818
9.02059
9.22698
9.46775
9.74192
10.0466
10.3765
10.7236
11.0777
11.4257
11.7522
12.0419
12.281
12.4595
12.5727
12.6227
12.6178
12.5713
12.4994
12.4185
12.3437
12.2877
12.2605
8.67064
8.57124
8.50705
8.47465
8.47124
8.49474
8.54403
8.61911
8.72095
8.85128
9.01214
9.2055
9.43266
9.69366
9.9867
10.3075
10.6488
11.0005
11.3494
11.6795
11.9746
12.2194
12.4027
12.5187
12.569
12.5618
12.5112
12.434
12.3469
12.2647
12.1989
12.1581
8.68434
8.5589
8.4824
8.44538
8.44033
8.46203
8.50756
8.57611
8.66854
8.78692
8.93404
9.11286
9.3259
9.57459
9.85855
10.1749
10.5173
10.8753
11.2353
11.5806
11.893
12.1551
12.3529
12.4786
12.5321
12.5214
12.4614
12.3705
12.2673
12.1677
12.0841
12.0252
8.63702
8.48722
8.39784
8.35412
8.34446
8.36095
8.39916
8.45758
8.53701
8.63999
8.77014
8.93163
9.12848
9.36379
9.63898
9.95291
10.3009
10.672
11.0525
11.4245
11.7677
12.0613
12.2875
12.4343
12.4988
12.4878
12.4166
12.3061
12.1783
12.0525
11.9437
11.8624
8.51089
8.33892
8.23705
8.18543
8.16876
8.17683
8.20394
8.24805
8.31004
8.39293
8.50129
8.64065
8.81671
9.03461
9.29797
9.60795
9.96231
10.3504
10.759
11.1695
11.5589
11.9022
12.1759
12.3621
12.4523
12.45
12.3704
12.2372
12.0775
11.9166
11.7742
11.6651
8.28962
8.09774
7.98403
7.92359
7.89765
7.89394
7.9057
7.93049
7.96926
8.02555
8.10492
8.21428
8.36129
8.55343
8.79709
9.09643
9.45236
9.85708
10.2985
10.7582
11.2108
11.6265
11.974
12.2265
12.3668
12.3915
12.3132
12.1584
11.9611
11.7554
11.5697
11.4247
7.9581
7.74859
7.6236
7.55327
7.51551
7.49617
7.48748
7.48662
7.49454
7.51521
7.55506
7.62246
7.72715
7.87938
8.08895
8.36391
8.70925
9.12317
9.59673
10.1135
10.6469
11.1616
11.6173
11.9745
12.2021
12.285
12.2289
12.0608
11.8231
11.563
11.3217
11.1296
7.50266
7.27781
7.14188
7.06018
7.00748
6.96778
6.93233
6.89776
6.86481
6.83765
6.82338
6.83175
6.87469
6.96566
7.11865
7.34678
7.66046
8.06593
8.56226
9.13793
9.76708
10.4098
11.0152
11.5278
11.8967
12.0871
12.0904
11.9296
11.655
11.3313
11.0198
10.766
6.91158
6.67379
6.52697
6.43189
6.36034
6.29452
6.22455
6.14621
6.05973
5.96901
5.8815
5.80808
5.76295
5.76316
5.82782
5.9765
6.22721
6.59374
7.09082
7.71667
8.44966
9.24753
10.049
10.7793
11.3613
11.731
11.8541
11.74
11.4434
11.0507
10.6524
10.3179
6.17585
5.92765
5.76972
5.65872
5.56368
5.46498
5.35133
5.21734
5.06212
4.88882
4.70466
4.52125
4.35494
4.2267
4.16156
4.18708
4.3308
4.61658
5.07594
5.72805
6.56034
7.53243
8.57479
9.59255
10.4765
11.122
11.4542
11.4533
11.1687
10.7093
10.2067
9.76813
5.28991
5.03397
4.86454
4.73476
4.61112
4.47212
4.30479
4.10203
3.86123
3.58401
3.27665
2.95091
2.62494
2.3237
2.07886
1.92737
1.90858
2.0594
2.42538
3.06076
3.96915
5.11857
6.43659
7.81034
9.09536
10.1361
10.7988
11.0123
10.8017
10.293
9.67073
9.10006
4.25232
3.99141
3.81012
3.65875
3.50153
3.31498
3.0841
2.79952
2.45616
2.05327
1.59531
1.09336
0.56674
0.0441903
-0.435655
-0.825276
-1.07121
-1.11933
-0.916241
-0.362173
0.575308
1.88104
3.48816
5.27257
7.05632
8.62596
9.77068
10.3394
10.3025
9.78566
9.03454
8.29956
3.06615
2.80306
2.60984
2.43472
2.23992
1.99991
1.69727
1.31975
0.859054
0.311125
-0.322403
-1.03212
-1.79844
-2.58951
-3.35991
-4.05105
-4.59395
-4.91507
-4.94538
-4.55714
-3.66319
-2.25265
-0.375364
1.84516
4.20631
6.43705
8.2352
9.33836
9.61991
9.17063
8.2942
7.35921
1.73898
1.47634
1.27172
1.0721
0.837927
0.54143
0.162393
-0.314893
-0.902718
-1.60932
-2.43691
-3.37888
-4.41652
-5.51587
-6.62554
-7.67621
-8.58289
-9.25098
-9.58672
-9.45677
-8.7013
-7.26965
-5.18165
-2.54359
0.434281
3.43421
6.05808
7.90379
8.69587
8.43422
7.4573
6.28461
0.282223
0.0222611
-0.192223
-0.414755
-0.686565
-1.0379
-1.49223
-2.0693
-2.78605
-3.6557
-4.68527
-5.87202
-7.1993
-8.63246
-10.1155
-11.5696
-12.8945
-13.974
-14.6869
-14.8969
-14.3874
-13.0457
-10.8486
-7.86567
-4.29005
-0.462545
3.13353
5.93895
7.47504
7.57292
6.55171
5.104
-1.2901
-1.54586
-1.76732
-2.00785
-2.31048
-2.70846
-3.22909
-3.89672
-4.73355
-5.75841
-6.98382
-8.41179
-10.0289
-11.8013
-13.6701
-15.549
-17.3247
-18.8612
-20.0101
-20.6216
-20.4599
-19.3351
-17.1655
-13.9651
-9.8804
-5.23923
-0.580058
3.38341
5.92299
6.60611
5.63896
3.88278
-2.96334
-3.21452
-3.43831
-3.68747
-4.00746
-4.43546
-5.00356
-5.74141
-6.67698
-7.8351
-9.23418
-10.8815
-12.7678
-14.8611
-17.1016
-19.3982
-21.6277
-23.6382
-25.2581
-26.3112
-26.5696
-25.7848
-23.7968
-20.5492
-16.1122
-10.7554
-5.02279
0.247522
4.053
5.59655
4.83455
2.74586
-4.72485
-4.97279
-5.19205
-5.43474
-5.75019
-6.18142
-6.76681
-7.54231
-8.54214
-9.79726
-11.332
-13.1589
-15.273
-17.6452
-20.2163
-22.893
-25.5459
-28.0121
-30.1026
-31.6154
-32.3278
-31.9741
-30.3151
-27.2089
-22.6252
-16.729
-10.0037
-3.35134
1.96068
4.68081
4.33899
1.91307
-6.56746
-6.81586
-7.02077
-7.23444
-7.51307
-7.90885
-8.469
-9.23724
-10.2545
-11.5579
-13.1768
-15.1286
-17.4122
-20.0015
-22.8389
-25.831
-28.846
-31.7151
-34.2391
-36.1983
-37.364
-37.4777
-36.26
-33.4678
-28.9572
-22.7474
-15.1891
-7.15923
-0.137244
4.11097
4.48434
1.7547
-8.49391
-8.74959
-8.92597
-9.07803
-9.27455
-9.58259
-10.0622
-10.767
-11.7451
-13.0388
-14.6817
-16.6946
-19.079
-21.8112
-24.8354
-28.0597
-31.3527
-34.5447
-37.4327
-39.7895
-41.3747
-41.9414
-41.2113
-38.8545
-34.6047
-28.3091
-20.1165
-10.7717
-1.86698
4.30595
5.80041
2.87524
-10.5233
-10.7967
-10.9231
-10.9665
-11.0189
-11.1714
-11.5027
-12.0787
-12.9549
-14.1774
-15.7819
-17.7901
-20.2046
-23.0025
-26.1299
-29.4966
-32.9733
-36.3929
-39.5542
-42.2296
-44.1733
-45.139
-44.8616
-42.9799
-39.0997
-32.8867
-24.2348
-13.6424
-2.67324
5.90647
9.10092
6.23111
-12.7011
-13.0062
-13.0474
-12.9131
-12.7371
-12.6485
-12.7522
-13.1285
-13.8392
-14.9323
-16.4431
-18.3918
-20.779
-23.5805
-26.7415
-30.1718
-33.7441
-37.2944
-40.6264
-43.5181
-45.7285
-47.0037
-47.0737
-45.5954
-42.0786
-35.9966
-26.9599
-15.113
-1.81466
9.82187
15.5822
13.2821
-15.1187
-15.4695
-15.3628
-14.9456
-14.4258
-13.9902
-13.7773
-13.8823
-14.3702
-15.2865
-16.6618
-18.5109
-20.8299
-23.5902
-26.734
-30.1697
-33.7704
-37.3744
-40.7899
-43.8004
-46.171
-47.6482
-47.9349
-46.6637
-43.3224
-37.2469
-27.7256
-14.4535
1.61865
17.253
26.9172
26.1697
-17.9519
-18.349
-17.974
-17.107
-16.0837
-15.1718
-14.5471
-14.3145
-14.5333
-15.2396
-16.454
-18.1818
-20.4107
-23.1056
-26.2035
-29.61
-33.1967
-36.8027
-40.2378
-43.2876
-45.7179
-47.2742
-47.6427
-46.3821
-42.9126
-36.4166
-26.0077
-10.8915
8.67299
29.6749
45.3176
47.9123
-21.547
-21.933
-21.0436
-19.4509
-17.7001
-16.1577
-15.0262
-14.4021
-14.3239
-14.8078
-15.8566
-17.4616
-19.599
-22.2247
-25.2692
-28.6336
-32.1869
-35.7663
-39.1802
-42.2104
-44.6152
-46.1263
-46.4218
-44.9657
-41.0379
-33.6352
-21.5443
-3.62421
20.4966
48.7637
73.5262
82.6109
-26.6245
-26.7355
-24.8
-22.0106
-19.2201
-16.8734
-15.1542
-14.1107
-13.7355
-14.0103
-14.9125
-16.4144
-18.4781
-21.049
-24.0501
-27.3766
-30.8936
-34.4348
-37.8031
-40.7715
-43.0816
-44.4362
-44.4818
-42.5993
-37.8459
-28.9728
-14.3683
7.67593
38.2752
76.2405
114.663
135.67
-34.7825
-33.6365
-29.4657
-24.6781
-20.4408
-17.1284
-14.7884
-13.3452
-12.7148
-12.8287
-13.6314
-15.0729
-17.0999
-19.6467
-22.6278
-25.9325
-29.4208
-32.9214
-36.2294
-39.104
-41.2618
-42.3627
-41.9841
-39.4282
-33.4601
-22.5131
-4.51557
22.9467
62.1384
113.588
171.736
214.015
-49.7736
-43.8082
-34.7846
-26.7847
-20.7297
-16.4258
-13.539
-11.8108
-11.0478
-11.1146
-11.9167
-13.3805
-15.4378
-18.0132
-21.0143
-24.3254
-27.802
-31.2675
-34.508
-37.266
-39.2274
-39.9979
-39.0625
-35.5916
-28.0714
-14.5893
7.42889
41.2703
90.8739
160.035
247.619
326.012
-80.2921
-56.6832
-38.1342
-25.9145
-18.1932
-13.3625
-10.4312
-8.84124
-8.2756
-8.54836
-9.54337
-11.1778
-13.3793
-16.0704
-19.1578
-22.5253
-26.0272
-29.4838
-32.6739
-35.3241
-37.0895
-37.5189
-35.9957
-31.5035
-22.3773
-6.43567
19.3451
59.1982
119.349
209.71
344.692
508.132
-154.667
-60.6261
-28.2151
-15.3284
-9.23947
-6.05609
-4.43462
-3.84243
-4.03856
-4.90051
-6.35687
-8.35546
-10.845
-13.763
-17.0274
-20.53
-24.1312
-27.6541
-30.8768
-33.519
-35.2178
-35.4844
-33.6223
-28.5214
-18.5268
-1.3516
26.2427
69.0787
135.283
241.923
434.665
832.427
VECTORS velocity double
6.46845e-05 -6.46846e-05 0
0.000104873 2.4496e-05 0
-7.6649e-05 0.000157026 0
-0.000504296 0.000270621 0
-0.00112774 0.000352817 0
-0.00188931 0.000408753 0
-0.00274469 0.000446632 0
-0.00366348 0.000472157 0
-0.00462291 0.000487276 0
-0.00560095 0.000490761 0
-0.0065711 0.000479385 0
-0.00749958 0.000449101 0
-0.00834475 0.000396069 0
-0.00905833 0.00031751 0
-0.00958829 0.000212453 0
-0.00988313 8.23809e-05 0
-0.00989714 -6.83713e-05 0
-0.00959628 -0.000232483 0
-0.00896543 -0.000398371 0
-0.00801569 -0.000551369 0
-0.00678915 -0.000675172 0
-0.00536001 -0.000753967 0
-0.00383092 -0.000775126 0
-0.00232379 -0.000732006 0
-0.000965588 -0.000626196 0
0.000129125 -0.000468517 0
0.000876091 -0.000278449 0
0.00123583 -8.12923e-05 0
0.00122359 9.3531e-05 0
0.000917542 0.00021252 0
0.000469884 0.000235137 0
0.000117373 0.000117373 0
-2.80469e-05 -0.000101322 0
-0.000333509 0.000326407 0
-0.0011735 0.000876627 0
-0.00254644 0.00135161 0
-0.00435658 0.0017054 0
-0.00649099 0.00195216 0
-0.00885124 0.00211886 0
-0.0113574 0.00222489 0
-0.0139399 0.00227646 0
-0.0165286 0.00226829 0
-0.0190444 0.00218789 0
-0.0213956 0.00202024 0
-0.0234773 0.00175184 0
-0.0251762 0.00137419 0
-0.0263771 0.000886591 0
-0.0269725 0.000298458 0
-0.0268737 -0.000369231 0
-0.0260232 -0.00108291 0
-0.0244072 -0.00179488 0
-0.0220652 -0.00244658 0
-0.0190979 -0.00297381 0
-0.0156678 -0.00331456 0
-0.0119927 -0.00341874 0
-0.00832955 -0.00325862 0
-0.00494951 -0.00283783 0
-0.00210469 -0.00219642 0
8.01903e-06 -0.00141022 0
0.0012823 -0.000583549 0
0.00172954 0.000160789 0
0.00149399 0.000686861 0
0.000857572 0.000844873 0
0.000241486 0.000476233 0
-0.000195475 0.000122199 0
-0.00102631 0.00123918 0
-0.0027046 0.00248213 0
-0.00512511 0.00353955 0
-0.00813373 0.00433621 0
-0.0115762 0.00489826 0
-0.0153177 0.0052745 0
-0.0192417 0.00549938 0
-0.0232395 0.00558227 0
-0.027199 0.00551068 0
-0.0309967 0.00525901 0
-0.0344945 0.00479814 0
-0.0375428 0.00410396 0
-0.0399862 0.00316437 0
-0.0416737 0.00198472 0
-0.04247 0.000592005 0
-0.0422691 -0.000962456 0
-0.0410079 -0.00260135 0
-0.0386779 -0.00422247 0
-0.0353361 -0.00570275 0
-0.0311129 -0.00690813 0
-0.026215 -0.0077083 0
-0.0209196 -0.00799548 0
-0.0155593 -0.00770532 0
-0.0104939 -0.00683652 0
-0.00607198 -0.00546451 0
-0.00258263 -0.00374419 0
-0.000206818 -0.00189967 0
0.00102554 -0.000202685 0
0.00126258 0.00104884 0
0.000834722 0.00154717 0
0.000253514 0.000971233 0
-0.000385586 0.000703259 0
-0.00181186 0.00291523 0
-0.00441822 0.00509074 0
-0.00794922 0.00688245 0
-0.0121711 0.0082238 0
-0.0168861 0.00916824 0
-0.0219303 0.00979012 0
-0.02716 0.0101374 0
-0.0324374 0.0102195 0
-0.0376185 0.010014 0
-0.0425461 0.00948088 0
-0.0470496 0.00857758 0
-0.0509491 0.00727229 0
-0.0540637 0.00555412 0
-0.0562222 0.00344089 0
-0.0572746 0.000984556 0
-0.0571053 -0.00172525 0
-0.0556441 -0.00456101 0
-0.0528767 -0.00736015 0
-0.0488563 -0.00992728 0
-0.043715 -0.0120481 0
-0.0376707 -0.0135105 0
-0.0310267 -0.0141326 0
-0.0241602 -0.013795 0
-0.0174976 -0.0124748 0
-0.0114733 -0.0102726 0
-0.00647366 -0.00742519 0
-0.00277304 -0.00429509 0
-0.000475266 -0.0013374 0
0.000527117 0.000944141 0
0.000568809 0.00203803 0
0.000202818 0.00142756 0
-0.000580937 0.00166978 0
-0.00262321 0.00541725 0
-0.0061872 0.00875907 0
-0.010847 0.0114049 0
-0.0162764 0.0133526 0
-0.0222312 0.0147093 0
-0.0285216 0.0155836 0
-0.0349847 0.0160368 0
-0.0414632 0.016076 0
-0.0477913 0.0156668 0
-0.05379 0.0147545 0
-0.0592677 0.0132851 0
-0.0640257 0.0112223 0
-0.067867 0.00856013 0
-0.0706063 0.00533268 0
-0.0720808 0.00161966 0
-0.0721606 -0.00244987 0
-0.0707574 -0.0067008 0
-0.0678327 -0.0109124 0
-0.0634128 -0.0148153 0
-0.057606 -0.0181082 0
-0.0506158 -0.0204848 0
-0.0427484 -0.0216698 0
-0.0344086 -0.021464 0
-0.0260816 -0.0197953 0
-0.0182923 -0.0167655 0
-0.0115435 -0.0126807 0
-0.00623494 -0.00804868 0
-0.00258152 -0.00353501 0
-0.000551288 0.000109129 0
0.000161108 0.00211896 0
0.000121679 0.00175206 0
-0.000774467 0.00302519 0
-0.00342724 0.0087569 0
-0.00793797 0.0134941 0
-0.0137068 0.0170985 0
-0.0203128 0.0196944 0
-0.0274661 0.0214755 0
-0.0349552 0.0225969 0
-0.0426047 0.0231361 0
-0.0502459 0.0230964 0
-0.0577018 0.0224304 0
-0.0647811 0.0210689 0
-0.0712803 0.0189475 0
-0.076989 0.0160264 0
-0.0816974 0.0123057 0
-0.0852057 0.00783478 0
-0.0873326 0.00271891 0
-0.087924 -0.00287792 0
-0.0868589 -0.00874103 0
-0.0840569 -0.0145989 0
-0.0794968 -0.0201089 0
-0.0732409 -0.0248773 0
-0.0654569 -0.0284899 0
-0.0564335 -0.0305554 0
-0.0465884 -0.0307632 0
-0.0364586 -0.0289531 0
-0.0266669 -0.0251888 0
-0.0178563 -0.0198169 0
-0.0105926 -0.0134847 0
-0.00525091 -0.00709412 0
-0.00191861 -0.00169429 0
-0.000349282 0.00164065 0
2.33849e-05 0.00189712 0
-0.000961059 0.00476071 0
-0.00419986 0.0129129 0
-0.00961566 0.0192646 0
-0.0164419 0.0239231 0
-0.0241688 0.0272026 0
-0.0324653 0.0294171 0
-0.0411039 0.0307831 0
-0.0499028 0.0313983 0
-0.0586901 0.0312627 0
-0.0672851 0.030315 0
-0.0754923 0.028471 0
-0.0831024 0.0256547 0
-0.089896 0.0218215 0
-0.0956508 0.0169739 0
-0.100148 0.0111719 0
-0.103179 0.00453945 0
-0.104553 -0.0027327 0
-0.104106 -0.0103982 0
-0.101703 -0.0181465 0
-0.0972597 -0.0255649 0
-0.0907741 -0.0321628 0
-0.0823577 -0.037405 0
-0.072261 -0.0407604 0
-0.0608937 -0.0417706 0
-0.0488306 -0.0401387 0
-0.0367908 -0.0358347 0
-0.0255768 -0.0291956 0
-0.0159633 -0.0209832 0
-0.00854702 -0.0123537 0
-0.00359666 -0.0047174 0
-0.000964499 0.000462277 0
-9.10872e-05 0.00182942 0
-0.00113498 0.00685675 0
-0.00491696 0.0178377 0
-0.0111685 0.0260072 0
-0.0189714 0.0318097 0
-0.0277377 0.0358091 0
-0.037103 0.0384725 0
-0.0468295 0.0400928 0
-0.0567351 0.0407931 0
-0.0666506 0.0405707 0
-0.0763986 0.0393498 0
-0.0857845 0.0370293 0
-0.0945966 0.0335185 0
-0.102608 0.0287628 0
-0.109581 0.0227606 0
-0.115273 0.0155741 0
-0.119441 0.00733612 0
-0.121851 -0.00174559 0
-0.122286 -0.0113974 0
-0.120551 -0.0212847 0
-0.11649 -0.0309309 0
-0.110025 -0.039748 0
-0.10119 -0.0470707 0
-0.0901742 -0.0522073 0
-0.0773504 -0.0545147 0
-0.0633036 -0.0535044 0
-0.0488311 -0.0489812 0
-0.0348985 -0.0411957 0
-0.0225266 -0.0309685 0
-0.0126031 -0.0197081 0
-0.00566103 -0.00925537 0
-0.00171346 -0.00157948 0
-0.000227013 0.00151132 0
-0.00128936 0.00928109 0
-0.00555177 0.0234577 0
-0.0125419 0.0336288 0
-0.0212114 0.0406606 0
-0.0309077 0.0454209 0
-0.0412416 0.0485599 0
-0.0519703 0.0504606 0
-0.0629163 0.0512769 0
-0.0739183 0.0510045 0
-0.0848061 0.0495518 0
-0.09539 0.0467973 0
-0.105458 0.0426309 0
-0.114777 0.0369806 0
-0.123092 0.0298314 0
-0.130134 0.0212372 0
-0.135623 0.0113296 0
-0.139276 0.00032359 0
-0.140825 -0.0114832 0
-0.140014 -0.0237438 0
-0.136616 -0.035931 0
-0.130465 -0.0473649 0
-0.121505 -0.0572485 0
-0.109833 -0.0647166 0
-0.095752 -0.0689106 0
-0.0798125 -0.0690948 0
-0.0628516 -0.0648244 0
-0.0459773 -0.0561594 0
-0.0304735 -0.0438805 0
-0.0175873 -0.0296058 0
-0.00822054 -0.0156665 0
-0.00264424 -0.00469228 0
-0.000395439 0.000888869 0
-0.00141644 0.0119869 0
-0.00607512 0.029673 0
-0.0136778 0.0420063 0
-0.0230732 0.0503479 0
-0.0335592 0.0559158 0
-0.0447286 0.0595682 0
-0.0563383 0.0617908 0
-0.0682187 0.0627731 0
-0.0802189 0.0625105 0
-0.0921794 0.060894 0
-0.103918 0.0577779 0
-0.115226 0.0530261 0
-0.125863 0.046541 0
-0.135561 0.0382844 0
-0.144025 0.0282909 0
-0.150942 0.0166807 0
-0.155984 0.00366799 0
-0.158831 -0.0104318 0
-0.159176 -0.0252604 0
-0.156726 -0.0402629 0
-0.151229 -0.0546818 0
-0.142522 -0.0675981 0
-0.130588 -0.0779726 0
-0.115612 -0.0847122 0
-0.0980586 -0.0867855 0
-0.0787427 -0.0834104 0
-0.0588636 -0.0743268 0
-0.0399539 -0.0601267 0
-0.0236701 -0.0425297 0
-0.0114019 -0.0243775 0
-0.0038171 -0.00914229 0
-0.000610227 -0.000116798 0
-0.00150821 0.0149115 0
-0.00645732 0.0363562 0
-0.0145178 0.0509864 0
-0.0244672 0.0607128 0
-0.0355684 0.0671381 0
-0.0474023 0.0713492 0
-0.0597273 0.0739445 0
-0.0723825 0.0751548 0
-0.0852295 0.074976 0
-0.0981211 0.0732805 0
-0.110885 0.0698946 0
-0.123318 0.0646499 0
-0.13518 0.0574157 0
-0.146193 0.0481211 0
-0.156047 0.0367726 0
-0.164401 0.023469 0
-0.170894 0.00841547 0
-0.17516 -0.00806643 0
-0.176851 -0.0255894 0
-0.175627 -0.0436077 0
-0.171152 -0.0613097 0
-0.163153 -0.0776762 0
-0.151471 -0.0915104 0
-0.136137 -0.101485 0
-0.117464 -0.10624 0
-0.0961617 -0.104574 0
-0.0734392 -0.0957646 0
-0.0510213 -0.0800164 0
-0.0309879 -0.0589571 0
-0.0153313 -0.0358749 0
-0.0052984 -0.0152626 0
-0.000887349 -0.00161437 0
-0.00155729 0.017977 0
-0.00667109 0.0433536 0
-0.0150078 0.0603861 0
-0.0253094 0.0715641 0
-0.0368176 0.0788961 0
-0.0491044 0.0837118 0
-0.0619295 0.0867319 0
-0.07514 0.0882331 0
-0.0886096 0.0882144 0
-0.102205 0.0865288 0
-0.115766 0.082972 0
-0.1291 0.0773393 0
-0.141973 0.0694606 0
-0.154109 0.0592259 0
-0.165194 0.0466057 0
-0.174874 0.0316702 0
-0.182773 0.0146067 0
-0.188498 -0.00426696 0
-0.191674 -0.0245221 0
-0.191921 -0.0456516 0
-0.188839 -0.0668229 0
-0.182048 -0.0869536 0
-0.171237 -0.104725 0
-0.156241 -0.1186 0
-0.137156 -0.126883 0
-0.114497 -0.127892 0
-0.0893672 -0.120299 0
-0.0635819 -0.103686 0
-0.0396042 -0.0792991 0
-0.0201155 -0.0506782 0
-0.00715468 -0.0234531 0
-0.00124398 -0.0037457 0
-0.001558 0.0210923 0
-0.00669512 0.0504892 0
-0.0151048 0.0699968 0
-0.0255313 0.0826816 0
-0.0372076 0.0909631 0
-0.0496978 0.096422 0
-0.0627602 0.0999092 0
-0.0762471 0.101753 0
-0.0900429 0.10196 0
-0.104028 0.100364 0
-0.11806 0.09673 0
-0.13196 0.0908155 0
-0.145511 0.0824084 0
-0.158452 0.071356 0
-0.170481 0.0575885 0
-0.181255 0.0411419 0
-0.1904 0.0221792 0
-0.197522 0.00100761 0
-0.202229 -0.0219146 0
-0.204123 -0.0461181 0
-0.202767 -0.0707943 0
-0.19769 -0.0948503 0
-0.188426 -0.116903 0
-0.174589 -0.135256 0
-0.155996 -0.147904 0
-0.132866 -0.152659 0
-0.106067 -0.147461 0
-0.0773559 -0.13102 0
-0.0494748 -0.103824 0
-0.0258214 -0.0692957 0
-0.00944696 -0.0341708 0
-0.00169796 -0.00668765 0
-0.00150736 0.0241577 0
-0.00651779 0.0575714 0
-0.0147839 0.0795904 0
-0.0250905 0.0938211 0
-0.0366729 0.103082 0
-0.0490869 0.109207 0
-0.0620843 0.113184 0
-0.0755185 0.1154 0
-0.0892823 0.115873 0
-0.10327 0.114424 0
-0.117359 0.11079 0
-0.131394 0.104691 0
-0.145183 0.0958738 0
-0.158496 0.084145 0
-0.171062 0.069394 0
-0.182571 0.0516199 0
-0.19268 0.0309555 0
-0.201015 0.00768834 0
-0.207184 -0.0177198 0
-0.210799 -0.0448042 0
-0.211424 -0.0728388 0
-0.208523 -0.100784 0
-0.201487 -0.127269 0
-0.189694 -0.150519 0
-0.17264 -0.168288 0
-0.150153 -0.177891 0
-0.122721 -0.17646 0
-0.0918615 -0.161591 0
-0.060421 -0.132574 0
-0.0324574 -0.092162 0
-0.012224 -0.0479123 0
-0.00226682 -0.0106524 0
-0.00140611 0.0270711 0
-0.00614049 0.0644028 0
-0.0140446 0.0889293 0
-0.0239803 0.104725 0
-0.0351957 0.114976 0
-0.0472356 0.121767 0
-0.0598403 0.126226 0
-0.0728592 0.12881 0
-0.0861903 0.129557 0
-0.0997428 0.12828 0
-0.113415 0.124694 0
-0.127081 0.118487 0
-0.140587 0.109372 0
-0.153745 0.0971179 0
-0.166336 0.0815773 0
-0.178105 0.0627149 0
-0.188766 0.0406302 0
-0.197997 0.0155799 0
-0.205435 -0.0120036 0
-0.210729 -0.0416119 0
-0.213474 -0.0726599 0
-0.21311 -0.104229 0
-0.208916 -0.135054 0
-0.200049 -0.163394 0
-0.185651 -0.186866 0
-0.165086 -0.202365 0
-0.138319 -0.206186 0
-0.106425 -0.194618 0
-0.0721178 -0.165295 0
-0.0399585 -0.119565 0
-0.0155165 -0.0651848 0
-0.00296717 -0.0158864 0
-0.00125923 0.0297365 0
-0.00558007 0.0707927 0
-0.0129158 0.0977792 0
-0.0222379 0.115132 0
-0.0328159 0.126362 0
-0.044182 0.133787 0
-0.0560592 0.138688 0
-0.0682877 0.141596 0
-0.0807683 0.142583 0
-0.0934244 0.141463 0
-0.106179 0.137937 0
-0.11894 0.131672 0
-0.1316 0.122353 0
-0.144024 0.10972 0
-0.156057 0.0935988 0
-0.16752 0.0739253 0
-0.178207 0.0507685 0
-0.187884 0.024349 0
-0.196272 -0.00494574 0
-0.203074 -0.0365745 0
-0.20793 -0.0700957 0
-0.210309 -0.104779 0
-0.209436 -0.139571 0
-0.204278 -0.172902 0
-0.193631 -0.202404 0
-0.176342 -0.224681 0
-0.151731 -0.235248 0
-0.120218 -0.228964 0
-0.084101 -0.201373 0
-0.0481793 -0.151568 0
-0.019333 -0.0864703 0
-0.0038149 -0.0226685 0
-0.00107628 0.032072 0
-0.00487017 0.0765719 0
-0.0114592 0.105925 0
-0.0199488 0.124798 0
-0.0296383 0.136963 0
-0.0400458 0.14496 0
-0.0508728 0.150219 0
-0.0619466 0.153367 0
-0.073169 0.154515 0
-0.0844777 0.153495 0
-0.0958228 0.150004 0
-0.107153 0.143697 0
-0.118407 0.134242 0
-0.129516 0.121363 0
-0.140398 0.10487 0
-0.150961 0.0846806 0
-0.161103 0.0608429 0
-0.170699 0.033547 0
-0.179589 0.00313469 0
-0.187556 -0.0298855 0
-0.194324 -0.0651616 0
-0.199448 -0.10221 0
-0.202161 -0.1403 0
-0.201307 -0.178185 0
-0.195371 -0.213705 0
-0.182674 -0.243366 0
-0.161801 -0.262047 0
-0.132317 -0.263161 0
-0.0957923 -0.239817 0
-0.0568968 -0.187941 0
-0.0236602 -0.11218 0
-0.00482688 -0.0313103 0
-0.000871258 0.0340195 0
-0.00406134 0.0816083 0
-0.00976976 0.113186 0
-0.017249 0.133506 0
-0.0258339 0.14653 0
-0.0350291 0.154996 0
-0.044513 0.160494 0
-0.054099 0.163752 0
-0.0636897 0.164943 0
-0.0732395 0.163926 0
-0.0827285 0.160408 0
-0.0921479 0.154042 0
-0.101492 0.144495 0
-0.110756 0.131483 0
-0.119937 0.114813 0
-0.129037 0.094401 0
-0.138062 0.0702886 0
-0.147012 0.0426478 0
-0.155864 0.0117756 0
-0.164519 -0.0219036 0
-0.172822 -0.0580732 0
-0.180463 -0.0965326 0
-0.18676 -0.136967 0
-0.190521 -0.178611 0
-0.190002 -0.219733 0
-0.183042 -0.256995 0
-0.16745 -0.284883 0
-0.141776 -0.295482 0
-0.106538 -0.27926 0
-0.0658239 -0.228107 0
-0.0284688 -0.142605 0
-0.00602511 -0.0421623 0
-0.000662237 0.035553 0
-0.0032205 0.0858232 0
-0.00797586 0.119435 0
-0.0143241 0.141085 0
-0.0216374 0.15485 0
-0.0294105 0.163645 0
-0.0373014 0.16922 0
-0.0451124 0.172423 0
-0.0527504 0.173501 0
-0.06019 0.172357 0
-0.0674462 0.168722 0
-0.0745569 0.162259 0
-0.0815736 0.152639 0
-0.0885589 0.139588 0
-0.0955868 0.122918 0
-0.102747 0.102556 0
-0.110147 0.0785575 0
-0.117911 0.0510932 0
-0.126158 0.0204292 0
-0.134951 -0.013109 0
-0.144279 -0.0492366 0
-0.153989 -0.0880181 0
-0.163561 -0.129612 0
-0.171886 -0.173881 0
-0.177122 -0.219744 0
-0.17673 -0.264336 0
-0.167777 -0.302087 0
-0.147696 -0.324034 0
-0.115649 -0.317995 0
-0.0746264 -0.271108 0
-0.0337241 -0.177861 0
-0.00744318 -0.0556305 0
-0.000471136 0.0366864 0
-0.00243051 0.0892074 0
-0.00623864 0.124614 0
-0.0114074 0.147423 0
-0.017343 0.161761 0
-0.0235358 0.170699 0
-0.0296328 0.176154 0
-0.035434 0.179102 0
-0.0408585 0.179885 0
-0.0459082 0.178463 0
-0.0506385 0.174602 0
-0.0551387 0.167989 0
-0.0595209 0.158308 0
-0.063915 0.145298 0
-0.0684685 0.128789 0
-0.0733505 0.108728 0
-0.0787567 0.0851928 0
-0.0849124 0.0583774 0
-0.0920641 0.0285438 0
-0.100446 -0.00404885 0
-0.110204 -0.03921 0
-0.121348 -0.077191 0
-0.133587 -0.118628 0
-0.146019 -0.164109 0
-0.156879 -0.213419 0
-0.163431 -0.264503 0
-0.16213 -0.312174 0
-0.149278 -0.346879 0
-0.122435 -0.354039 0
-0.0829372 -0.315584 0
-0.0393962 -0.217829 0
-0.00913321 -0.0722069 0
-0.000324114 0.0374816 0
-0.00179166 0.0918391 0
-0.00475387 0.128753 0
-0.00878041 0.152479 0
-0.0132984 0.167158 0
-0.017805 0.176002 0
-0.021954 0.181097 0
-0.02556 0.183565 0
-0.0285685 0.183854 0
-0.0310187 0.181994 0
-0.0330139 0.177797 0
-0.0346997 0.17098 0
-0.0362518 0.161251 0
-0.037868 0.148366 0
-0.0397665 0.132173 0
-0.042189 0.112647 0
-0.0454047 0.0898949 0
-0.0497147 0.0641409 0
-0.0554542 0.0356715 0
-0.0629746 0.00472564 0
-0.0725692 -0.0286317 0
-0.0844191 -0.0647753 0
-0.0984788 -0.104745 0
-0.114164 -0.149875 0
-0.129992 -0.200965 0
-0.14329 -0.257107 0
-0.150145 -0.314015 0
-0.14585 -0.362187 0
-0.12621 -0.385214 0
-0.0903513 -0.359766 0
-0.0454594 -0.26208 0
-0.0111691 -0.0925092 0
-0.000253608 0.0380594 0
-0.00142752 0.0939029 0
-0.00375895 0.131983 0
-0.00677546 0.156292 0
-0.00990197 0.170989 0
-0.0126604 0.179436 0
-0.0147416 0.183893 0
-0.0160035 0.185637 0
-0.016439 0.185226 0
-0.0161387 0.182771 0
-0.0152618 0.178138 0
-0.0140155 0.171079 0
-0.0126412 0.16133 0
-0.0114048 0.148666 0
-0.0105933 0.132959 0
-0.0105165 0.114207 0
-0.0115065 0.0925409 0
-0.0139162 0.0682146 0
-0.0181222 0.0415433 0
-0.0245198 0.0127718 0
-0.0334952 -0.0181078 0
-0.0453581 -0.0515865 0
-0.0602771 -0.0889554 0
-0.0780478 -0.132209 0
-0.0976705 -0.183181 0
-0.116868 -0.242396 0
-0.131732 -0.307005 0
-0.136838 -0.368386 0
-0.126252 -0.40924 0
-0.0963835 -0.401468 0
-0.0518661 -0.309787 0
-0.01364 -0.117318 0
-0.000303674 0.0386166 0
-0.00149942 0.0957152 0
-0.00354947 0.134552 0
-0.00578588 0.158976 0
-0.00760034 0.173246 0
-0.00857147 0.180908 0
-0.00847613 0.184407 0
-0.00725734 0.185167 0
-0.00498525 0.18386 0
-0.00181988 0.180672 0
0.00201426 0.175526 0
0.00624314 0.168215 0
0.0105586 0.158504 0
0.0146255 0.146189 0
0.0180867 0.131164 0
0.0205701 0.113442 0
0.0216954 0.0931701 0
0.021082 0.0706084 0
0.0183579 0.0460796 0
0.0131544 0.0198367 0
0.00508815 -0.00813101 0
-0.00621179 -0.0384005 0
-0.0210609 -0.0723732 0
-0.0395912 -0.11249 0
-0.061429 -0.161439 0
-0.0850339 -0.221336 0
-0.107 -0.291235 0
-0.121699 -0.364351 0
-0.121712 -0.423847 0
-0.100371 -0.438071 0
-0.0584776 -0.359595 0
-0.0166278 -0.147586 0
-0.000541619 0.0394619 0
-0.0022356 0.0977597 0
-0.00450935 0.136831 0
-0.00628097 0.160705 0
-0.00688382 0.173935 0
-0.00601305 0.18032 0
-0.00360546 0.182492 0
0.000255716 0.182001 0
0.0053893 0.17962 0
0.0115363 0.1756 0
0.018388 0.169912 0
0.0256031 0.162385 0
0.0328121 0.15281 0
0.0396202 0.141009 0
0.0456138 0.12689 0
0.0503713 0.110476 0
0.0534754 0.0919077 0
0.054528 0.0714316 0
0.0531659 0.0493426 0
0.0490681 0.0258751 0
0.0419491 0.0010159 0
0.0315373 -0.0258357 0
0.0175394 -0.056091 0
-0.000450584 -0.0922516 0
-0.0227382 -0.137552 0
-0.048748 -0.195609 0
-0.0761246 -0.267619 0
-0.0997905 -0.349602 0
-0.111455 -0.426918 0
-0.101299 -0.466497 0
-0.0649302 -0.409431 0
-0.020158 -0.184372 0
-0.00108083 0.0410844 0
-0.00398255 0.100733 0
-0.00715375 0.139303 0
-0.00881579 0.161667 0
-0.00826161 0.173021 0
-0.00541431 0.177515 0
-0.000475705 0.177951 0
0.00625419 0.175952 0
0.0144295 0.172361 0
0.0236727 0.167469 0
0.0335936 0.161271 0
0.0437891 0.153616 0
0.053839 0.14432 0
0.0633058 0.133224 0
0.0717401 0.120247 0
0.078693 0.105408 0
0.0837324 0.0888317 0
0.0864625 0.070725 0
0.0865443 0.0513294 0
0.083709 0.0308212 0
0.0777509 0.00914685 0
0.0684661 -0.01427 0
0.0555902 -0.0407828 0
0.0387546 -0.0727342 0
0.017487 -0.113514 0
-0.00869944 -0.16745 0
-0.0391406 -0.23796 0
-0.0702114 -0.324525 0
-0.0938461 -0.416696 0
-0.0975286 -0.483193 0
-0.0704069 -0.456226 0
-0.0241134 -0.228643 0
-0.0021216 0.0442868 0
-0.00728079 0.105591 0
-0.0121621 0.142497 0
-0.0139903 0.161963 0
-0.0121597 0.17034 0
-0.00702227 0.172211 0
0.000810556 0.170483 0
0.0107315 0.166769 0
0.0221906 0.161909 0
0.0346888 0.156179 0
0.0477629 0.149565 0
0.060964 0.141925 0
0.0738427 0.133083 0
0.0859431 0.122894 0
0.0968073 0.111278 0
0.105987 0.0982439 0
0.113062 0.083882 0
0.117659 0.0683474 0
0.119475 0.0518089 0
0.118288 0.0343644 0
0.113944 0.0159056 0
0.106298 -0.00409767 0
0.0951028 -0.0268842 0
0.0799659 -0.0546604 0
0.0603073 -0.0906619 0
0.0353382 -0.139147 0
0.00435981 -0.204844 0
-0.0316185 -0.290592 0
-0.0665051 -0.392107 0
-0.0864193 -0.484185 0
-0.0732692 -0.495505 0
-0.0280847 -0.280842 0
-0.00401297 0.0504214 0
-0.0129337 0.113537 0
-0.0202997 0.146798 0
-0.022206 0.161396 0
-0.0185589 0.16543 0
-0.0104674 0.163893 0
0.000874552 0.159627 0
0.014484 0.154095 0
0.0295963 0.148012 0
0.0456071 0.141568 0
0.0620067 0.134704 0
0.0783303 0.127262 0
0.0941299 0.119067 0
0.108963 0.109976 0
0.122393 0.0999016 0
0.134003 0.088831 0
0.143408 0.0768151 0
0.150277 0.0639479 0
0.154348 0.0503217 0
0.155431 0.0359555 0
0.153401 0.0206886 0
0.14814 0.00402663 0
0.139415 -0.015089 0
0.126782 -0.0386861 0
0.109514 -0.0697087 0
0.0864938 -0.112111 0
0.0563093 -0.170717 0
0.018016 -0.250447 0
-0.0260798 -0.35327 0
-0.0638397 -0.465349 0
-0.0704678 -0.520864 0
-0.0311047 -0.340031 0
-0.00730547 0.0617398 0
-0.0218969 0.125731 0
-0.0318693 0.151943 0
-0.0327473 0.159036 0
-0.0258405 0.157236 0
-0.013465 0.151619 0
0.00246342 0.14463 0
0.0205828 0.137363 0
0.0399604 0.130254 0
0.0599437 0.123331 0
0.0800276 0.116456 0
0.0997761 0.109437 0
0.118782 0.102087 0
0.136651 0.0942545 0
0.153 0.0858431 0
0.167468 0.0768121 0
0.179726 0.0671705 0
0.189495 0.0569543 0
0.196551 0.0461888 0
0.200727 0.0348298 0
0.201889 0.0226824 0
0.199897 0.00928572 0
0.194528 -0.00625408 0
0.185283 -0.0256436 0
0.171231 -0.0514301 0
0.150899 -0.0870385 0
0.122206 -0.136912 0
0.0828289 -0.206581 0
0.0319099 -0.302121 0
-0.023615 -0.423212 0
-0.0565788 -0.523408 0
-0.0311464 -0.402282 0
-0.0125909 0.0816362 0
-0.0342564 0.142091 0
-0.0444713 0.15577 0
-0.0407349 0.15235 0
-0.0272906 0.14357 0
-0.00806663 0.133686 0
0.0143449 0.124223 0
0.0383601 0.115634 0
0.0630361 0.107929 0
0.087789 0.10092 0
0.112201 0.0943715 0
0.135925 0.0880491 0
0.158642 0.0817514 0
0.180043 0.0753197 0
0.199828 0.0686438 0
0.217712 0.06166 0
0.233435 0.0543415 0
0.24677 0.0466789 0
0.257528 0.0386499 0
0.265547 0.0301745 0
0.27067 0.0210518 0
0.272705 0.0108731 0
0.271346 -0.00111209 0
0.266012 -0.0162074 0
0.255604 -0.0364061 0
0.23828 -0.064407 0
0.211337 -0.103907 0
0.171305 -0.160176 0
0.11487 -0.241172 0
0.0430087 -0.356776 0
-0.0221863 -0.491686 0