# vtk DataFile Version 2.0
Lid-driven cavity
ASCII
DATASET STRUCTURED_POINTS
DIMENSIONS 32 32 1
ORIGIN 0.015625 0.015625 0
SPACING 0.03125 0.03125 1
POINT_DATA 1024
SCALARS pressure double 1
LOOKUP_TABLE default
36.5543
36.3931
36.1131
35.8048
35.5228
35.2941
35.1321
35.0459
35.0459
35.1451
35.3581
35.6987
36.1767
36.7946
37.5446
38.4059
39.3438
40.3107
41.2448
42.076
42.7346
43.162
43.3206
43.2028
42.8345
42.2737
41.6013
40.9105
40.295
39.8362
39.5939
39.5787
36.7154
36.5474
36.3143
36.0681
35.8429
35.6581
35.5254
35.4544
35.4559
35.5424
35.7277
36.0247
36.443
36.9858
37.6471
38.4092
39.2414
40.1024
40.9361
41.6788
42.2671
42.6481
42.7885
42.6835
42.3591
41.87
41.2904
40.7004
40.1777
39.7863
39.5726
39.5634
37.0058
36.7663
36.5247
36.3006
36.1059
35.9467
35.8282
35.7571
35.7432
35.7992
35.9399
36.1798
36.5309
36.9999
37.5847
38.2722
39.0361
39.8383
40.6248
41.3327
41.8983
42.2674
42.4054
42.3063
41.9957
41.5282
40.9772
40.4209
39.9283
39.5557
39.3438
39.3243
37.3232
36.9824
36.7017
36.4723
36.2845
36.13
36.0054
35.9132
35.862
35.8653
35.9402
36.1049
36.3763
36.7665
37.2796
37.9084
38.6314
39.411
40.1936
40.9138
41.5031
41.9006
42.065
41.9845
41.6818
41.2116
40.6495
40.0768
39.5646
39.166
38.9196
38.8557
37.5735
37.121
36.7862
36.5334
36.3318
36.1593
36.004
35.8645
35.7484
35.671
35.6529
35.718
35.8896
36.1876
36.6239
37.1986
37.8966
38.6802
39.4959
40.2746
40.9395
41.4185
41.6574
41.6326
41.3581
40.8858
40.2942
39.6718
39.0977
38.6313
38.3133
38.1737
37.667
37.1025
36.7076
36.4188
36.1847
35.9702
35.7562
35.5381
35.3236
35.1306
34.9847
34.9164
34.9577
35.1377
35.4782
35.9888
36.6629
37.466
38.3465
39.2312
40.0334
40.6648
41.0515
41.1489
40.954
40.5086
39.8917
39.201
38.5314
37.9576
37.5309
37.2877
37.515
36.8439
36.3876
36.0528
35.7679
35.486
35.182
34.8492
34.4962
34.1444
33.8254
33.5778
33.4435
33.463
33.6701
34.0869
34.7187
35.5412
36.5092
37.5475
38.5586
39.4341
40.0716
40.3946
40.3695
40.0165
39.407
38.6487
37.8587
37.1394
36.5657
36.191
37.03
36.2613
35.7441
35.3539
34.9993
34.6226
34.1936
33.7043
33.1651
32.6013
32.0511
31.5622
31.1881
30.9828
30.9955
31.264
31.8093
32.6284
33.6908
34.9246
36.2224
37.4525
38.4762
39.1709
39.4548
39.3075
38.7792
37.9815
37.0607
36.1617
35.4014
34.8607
36.1283
35.2738
34.6965
34.2405
33.7956
33.2938
32.7007
32.0073
31.2254
30.3847
29.53
28.7191
28.0185
27.4987
27.2278
27.264
27.6484
28.4093
29.548
31.0029
32.6617
34.3694
35.9437
37.2013
37.9903
38.2241
37.9074
37.1416
36.1034
34.9977
34.0065
33.259
34.7342
33.8082
33.1713
32.6378
32.0795
31.4193
30.6185
29.6668
28.577
27.3824
26.1345
24.9014
23.7644
22.8133
22.1394
21.8272
21.9437
22.552
23.7123
25.3847
27.4609
29.7666
32.0733
34.1245
35.6746
36.5379
36.6377
36.0371
34.9345
33.6103
32.3429
31.338
32.7866
31.8054
31.1089
30.4844
29.7877
28.9331
27.8774
26.608
25.1377
23.5021
21.7588
19.9862
18.282
16.7579
15.5335
14.7261
14.4384
14.7569
15.8377
17.6801
20.1932
23.1935
26.4103
29.5076
32.1252
33.9419
34.7518
34.5334
33.4797
31.9534
30.3669
29.0438
30.2447
29.2263
28.4699
27.7402
26.8791
25.793
24.4337
22.7852
20.8583
18.6895
16.3411
13.9017
11.4857
9.22978
7.28579
5.81022
4.94913
4.8203
5.66702
7.57639
10.4899
14.2313
18.5007
22.8868
26.9031
30.0594
31.9648
32.4467
31.6387
29.9732
28.0347
26.323
27.0934
26.0573
25.2412
24.3926
23.3424
21.9899
20.2811
18.1951
15.739
12.9479
9.88708
6.6545
3.38159
0.231117
-2.60921
-4.93861
-6.56113
-7.30958
-6.89448
-5.07864
-1.87078
2.58197
7.97443
13.8385
19.566
24.4762
27.9385
29.5454
29.2846
27.6121
25.3104
23.1325
23.3473
22.3138
21.4397
20.4616
19.2024
17.5552
15.4596
12.8884
9.84275
6.35442
2.48967
-1.64596
-5.90474
-10.0974
-13.9986
-17.3598
-19.9286
-21.4777
-21.7076
-20.1933
-16.8701
-11.8301
-5.35126
2.07691
9.75117
16.8016
22.3173
25.5658
26.27
24.8145
22.1764
19.4513
19.0515
18.0413
17.114
16.0017
14.5228
12.5648
10.061
6.97598
3.30362
-0.930066
-5.65998
-10.775
-16.1128
-21.4586
-26.5502
-31.0899
-34.7655
-37.2801
-38.3478
-37.3705
-34.1727
-28.7677
-21.3688
-12.4378
-2.72147
6.75526
14.7904
20.2481
22.4434
21.5395
18.6488
15.2976
14.2798
13.3128
12.3416
11.0999
9.40448
7.13847
4.22799
0.629058
-3.67387
-8.66224
-14.2743
-20.3954
-26.8513
-33.4042
-39.7574
-45.5666
-50.4623
-54.0803
-56.1018
-55.8932
-53.0964
-47.6293
-39.6069
-29.4064
-17.7448
-5.73077
5.17672
13.3941
17.6837
17.782
14.7993
10.7516
9.12895
8.22373
7.22364
5.87018
3.98039
1.43361
-1.85153
-5.92885
-10.8245
-16.529
-22.9858
-30.0791
-37.6249
-45.3662
-52.9757
-60.0682
-66.2224
-71.0141
-74.0585
-74.7841
-72.6513
-67.4643
-59.2155
-48.1432
-34.8481
-20.418
-6.48095
4.94467
11.9512
13.6063
10.7855
5.98679
3.7102
2.88211
1.87536
0.443541
-1.59477
-4.365
-7.95722
-12.4365
-17.8407
-24.171
-31.3771
-39.3441
-47.8808
-56.7142
-65.4918
-73.7941
-81.1572
-87.1053
-91.192
-92.9187
-91.6482
-87.0674
-79.032
-67.602
-53.1788
-36.703
-19.8331
-4.93583
5.35569
9.19504
6.89325
1.31357
-1.86188
-2.60227
-3.58581
-5.0436
-7.15687
-10.059
-13.8518
-18.6139
-24.3967
-31.2127
-39.0192
-47.703
-57.0676
-66.8275
-76.61
-85.9686
-94.407
-101.412
-106.49
-109.186
-108.87
-105.145
-97.7294
-86.4891
-71.5637
-53.6218
-34.1776
-15.7842
-1.76457
4.91551
3.59631
-2.75786
-7.48191
-8.13103
-9.05323
-10.4627
-12.5456
-15.4507
-19.2979
-24.1832
-30.174
-37.295
-45.5112
-54.7113
-64.6949
-75.1661
-85.7364
-95.9392
-105.256
-113.149
-119.103
-122.652
-123.269
-120.525
-114.024
-103.451
-88.6548
-69.9332
-48.474
-26.7939
-8.7661
1.40424
1.64264
-5.42233
-13.0671
-13.6309
-14.4442
-15.7052
-17.6167
-20.3563
-24.0731
-28.8875
-34.8854
-42.1043
-50.5159
-60.0099
-70.3818
-81.327
-92.4447
-103.253
-113.22
-121.793
-128.448
-132.71
-134.143
-132.35
-126.894
-117.297
-103.133
-84.2754
-61.4284
-36.8204
-14.639
-0.332883
2.17564
-5.43606
-18.5712
-19.0679
-19.7124
-20.6928
-22.2499
-24.6144
-27.9814
-32.505
-38.2933
-45.3954
-53.7866
-63.3542
-73.8892
-85.0788
-96.5123
-107.698
-118.093
-127.139
-134.309
-139.131
-141.21
-140.217
-135.741
-127.195
-113.919
-95.3625
-71.6388
-44.4449
-17.9789
1.18594
6.8978
-0.9075
-24.0011
-24.4633
-24.8592
-25.3831
-26.3532
-28.0903
-30.8595
-34.8593
-40.223
-47.0069
-55.1875
-64.6482
-75.168
-86.422
-97.9878
-109.364
-120.001
-129.339
-136.85
-142.072
-144.616
-144.194
-140.453
-132.781
-120.33
-102.165
-77.7636
-48.0866
-17.0045
8.01401
18.2725
10.9877
-29.4411
-29.916
-29.9454
-29.7727
-29.8605
-30.6753
-32.5809
-35.8371
-40.5964
-46.9163
-54.7619
-63.9994
-74.3909
-85.5945
-97.1739
-108.617
-119.369
-128.867
-136.585
-142.062
-144.915
-144.818
-141.4
-134.142
-122.121
-104.004
-78.6575
-46.1336
-9.62365
22.8346
39.7427
34.3658
-35.099
-35.639
-35.107
-33.8953
-32.7239
-32.281
-33.0609
-35.3742
-39.3864
-45.1421
-52.5806
-61.5395
-71.7542
-82.8601
-94.4038
-105.862
-116.672
-126.267
-134.118
-139.756
-142.789
-142.857
-139.465
-131.982
-119.443
-100.526
-73.4152
-37.0353
6.46942
48.9516
75.925
75.0525
-41.4063
-42.0324
-40.5816
-37.8191
-34.9007
-32.8198
-32.2206
-33.4358
-36.6197
-41.7789
-48.8073
-57.4992
-67.5532
-78.5768
-90.0962
-101.575
-112.442
-122.125
-130.079
-135.817
-138.914
-138.98
-135.368
-127.217
-113.343
-92.0419
-61.3141
-19.3122
33.7007
90.1811
132.714
141.04
-49.2559
-49.8314
-46.7557
-41.6424
-36.3422
-32.2125
-30.0178
-30.052
-32.4067
-37.0144
-43.6987
-52.1957
-62.1587
-73.1623
-84.7109
-96.2542
-107.211
-116.996
-125.047
-130.841
-133.897
-133.747
-129.681
-120.41
-104.381
-79.3708
-42.6084
8.50945
74.5597
150.604
217.192
242.973
-60.5796
-60.4031
-54.2237
-45.4607
-36.9571
-30.3726
-26.4436
-25.3131
-26.9307
-31.1078
-37.5732
-45.9915
-55.9655
-67.0351
-78.6825
-90.3437
-101.426
-111.331
-119.47
-125.272
-128.175
-127.588
-122.778
-111.899
-92.8528
-62.7243
-17.7205
46.1637
131.301
234.087
337.141
394.678
-79.7966
-76.2224
-63.7073
-49.1618
-36.4468
-27.0899
-21.4322
-19.2873
-20.3644
-24.3049
-30.7224
-39.2045
-49.3029
-60.5251
-72.3337
-84.1527
-95.38
-105.401
-113.597
-119.343
-121.98
-120.765
-114.775
-101.793
-78.8776
-42.2715
13.0766
93.0675
203.01
343.571
499.588
613.668
-117.432
-100.883
-75.0147
-51.5065
-33.7032
-21.5796
-14.4814
-11.709
-12.6119
-16.6226
-23.2338
-31.9615
-42.3154
-53.7794
-65.8039
-77.8071
-89.1808
-99.2974
-107.509
-113.129
-115.392
-113.376
-105.865
-90.2676
-62.8379
-18.9049
47.9884
146.166
285.502
475.323
711.836
920.781
-197.724
-133.771
-82.0808
-46.976
-24.5247
-10.9502
-3.77036
-1.44465
-2.96781
-7.62225
-14.8358
-24.0976
-34.9082
-46.7522
-59.0853
-71.3323
-82.8887
-93.1206
-101.356
-106.853
-108.743
-105.915
-96.8309
-78.47
-46.7169
3.88816
81.0671
195.752
364.109
612.151
978.133
1418.75
-396.657
-143.939
-54.9699
-17.9457
0.244012
9.50208
13.2569
12.9779
9.46764
3.27626
-5.14265
-15.3607
-26.9376
-39.4021
-52.2442
-64.9148
-76.827
-87.3541
-95.8158
-101.442
-103.3
-100.152
-90.1836
-70.3508
-36.4742
17.2441
99.117
221.669
406.245
698.228
1220.17
2292.49
VECTORS velocity double
8.32211e-05 -8.32211e-05 0
0.000169886 -3.44371e-06 0
3.58641e-05 0.000137465 0
-0.000368156 0.000266555 0
-0.00100058 0.000365867 0
-0.00180496 0.000438513 0
-0.0027355 0.00049203 0
-0.0037592 0.000531665 0
-0.00484958 0.00055872 0
-0.00597944 0.000571136 0
-0.00711536 0.000564785 0
-0.00821494 0.000534789 0
-0.00922637 0.000476648 0
-0.0100902 0.000387187 0
-0.0107428 0.000265393 0
-0.0111213 0.000113134 0
-0.0111701 -6.43601e-05 0
-0.0108472 -0.000258508 0
-0.0101335 -0.000455225 0
-0.0090416 -0.000636661 0
-0.00762188 -0.000783062 0
-0.00596343 -0.000875392 0
-0.00418944 -0.000898598 0
-0.00244585 -0.000844985 0
-0.000883927 -0.00071694 0
0.000361133 -0.000528119 0
0.00119197 -0.000302721 0
0.00156598 -7.12861e-05 0
0.00150626 0.000131002 0
0.00111005 0.000265211 0
0.000560553 0.000284285 0
0.000138134 0.000138134 0
-9.64628e-08 -0.000166346 0
-0.000248692 0.000241612 0
-0.0010562 0.000833935 0
-0.00245871 0.00137662 0
-0.00437521 0.00180473 0
-0.00669546 0.00212429 0
-0.00931718 0.00235853 0
-0.0121521 0.00252382 0
-0.0151182 0.00262297 0
-0.0181283 0.00264691 0
-0.021083 0.00257955 0
-0.0238663 0.00240291 0
-0.0263479 0.00210161 0
-0.0283885 0.00166658 0
-0.029848 0.00109812 0
-0.0305974 0.000408343 0
-0.0305309 -0.000377285 0
-0.0295805 -0.00121889 0
-0.0277301 -0.00205889 0
-0.0250283 -0.00282676 0
-0.0215952 -0.00344573 0
-0.0176243 -0.00384215 0
-0.0133731 -0.00395699 0
-0.00914501 -0.00375826 0
-0.0052589 -0.00325171 0
-0.00201031 -0.00248701 0
0.000371892 -0.00155687 0
0.00176824 -0.000587485 0
0.00220004 0.000275116 0
0.00184538 0.000871967 0
0.00104268 0.00102973 0
0.000290759 0.000567027 0
-0.000181255 1.50059e-05 0
-0.00100614 0.00113374 0
-0.00274551 0.00248868 0
-0.00532464 0.00370351 0
-0.00859959 0.00466928 0
-0.0124155 0.00539586 0
-0.0166292 0.00592244 0
-0.0211093 0.00627496 0
-0.0257254 0.0064539 0
-0.0303374 0.00643816 0
-0.0347893 0.00619485 0
-0.0389082 0.0056899 0
-0.0425092 0.00489721 0
-0.0454036 0.00380592 0
-0.0474114 0.00242607 0
-0.0483742 0.000792643 0
-0.0481704 -0.00103187 0
-0.0467298 -0.00295539 0
-0.0440468 -0.00485567 0
-0.0401921 -0.00658654 0
-0.0353211 -0.00799006 0
-0.0296761 -0.0089138 0
-0.0235801 -0.00923247 0
-0.0174188 -0.0088721 0
-0.0116096 -0.00783322 0
-0.0065563 -0.00620738 0
-0.00259406 -0.00418094 0
6.8912e-05 -0.00202273 0
0.00140319 -5.57132e-05 0
0.00159008 0.00137055 0
0.00102345 0.00190047 0
0.000306932 0.00116472 0
-0.000400596 0.000596857 0
-0.00191428 0.00289046 0
-0.00473032 0.00528738 0
-0.00860077 0.0073544 0
-0.0132891 0.00898171 0
-0.0185896 0.0101998 0
-0.0243237 0.0110664 0
-0.0303258 0.0116132 0
-0.0364281 0.0118339 0
-0.0424497 0.0116918 0
-0.0481932 0.0111367 0
-0.053447 0.0101208 0
-0.0579923 0.00861263 0
-0.0616145 0.0066071 0
-0.0641149 0.00413301 0
-0.0653242 0.00125792 0
-0.0651161 -0.00190904 0
-0.063418 -0.00521696 0
-0.0602214 -0.00847367 0
-0.0555942 -0.0114504 0
-0.0496929 -0.0138986 0
-0.0427691 -0.015574 0
-0.0351694 -0.0162679 0
-0.0273235 -0.0158438 0
-0.0197172 -0.0142771 0
-0.0128469 -0.0116871 0
-0.00715645 -0.00835392 0
-0.00296254 -0.00470662 0
-0.000384829 -0.0012838 0
0.000704155 0.00132276 0
0.000698117 0.00252093 0
0.000243622 0.00171527 0
-0.00063471 0.00163216 0
-0.00288381 0.00561794 0
-0.00683838 0.00933051 0
-0.0120456 0.0123889 0
-0.018158 0.014748 0
-0.0249134 0.0164894 0
-0.0321006 0.0176981 0
-0.039528 0.0184112 0
-0.0470019 0.0186121 0
-0.0543147 0.018248 0
-0.0612434 0.0172527 0
-0.0675543 0.0155694 0
-0.0730115 0.0131666 0
-0.0773875 0.0100513 0
-0.0804748 0.00627644 0
-0.0820967 0.00194571 0
-0.0821175 -0.00278414 0
-0.0804494 -0.00770808 0
-0.07706 -0.0125686 0
-0.0719881 -0.0170546 0
-0.0653619 -0.020822 0
-0.057413 -0.0235234 0
-0.0484842 -0.024847 0
-0.0390275 -0.0245673 0
-0.0295848 -0.0226026 0
-0.0207461 -0.0190705 0
-0.0130813 -0.0143258 0
-0.00704894 -0.00896106 0
-0.00289949 -0.00375652 0
-0.000601039 0.00040804 0
0.000195798 0.00264485 0
0.000141374 0.00210027 0
-0.000871587 0.00313846 0
-0.00386166 0.00935082 0
-0.0089544 0.0146449 0
-0.0154823 0.0188096 0
-0.0229821 0.0219396 0
-0.0311349 0.0242059 0
-0.0397013 0.0257351 0
-0.0484722 0.0265725 0
-0.0572389 0.0266914 0
-0.0657805 0.0260231 0
-0.0738625 0.0244883 0
-0.0812419 0.0220241 0
-0.0876758 0.0186028 0
-0.0929297 0.0142451 0
-0.0967873 0.00902765 0
-0.0990585 0.00308752 0
-0.0995867 -0.00337691 0
-0.0982531 -0.010117 0
-0.0949823 -0.0168199 0
-0.0897619 -0.0230955 0
-0.0826687 -0.0285006 0
-0.0738904 -0.0325721 0
-0.063744 -0.0348734 0
-0.0526852 -0.0350565 0
-0.0413011 -0.0329402 0
-0.0302784 -0.0285942 0
-0.0203341 -0.0224111 0
-0.0121088 -0.0151335 0
-0.00603689 -0.00780545 0
-0.00223121 -0.00164717 0
-0.000423705 0.00209572 0
1.92381e-05 0.00226088 0
-0.00110145 0.0051115 0
-0.00480514 0.0140716 0
-0.010985 0.0211968 0
-0.0187648 0.0265654 0
-0.0275714 0.0304901 0
-0.0370346 0.0332714 0
-0.0468931 0.0350947 0
-0.0569284 0.0360191 0
-0.0669273 0.0360102 0
-0.0766665 0.034985 0
-0.0859107 0.0328526 0
-0.0944163 0.0295449 0
-0.101938 0.0250371 0
-0.108234 0.0193607 0
-0.113074 0.0126104 0
-0.116247 0.00494842 0
-0.117561 -0.00339521 0
-0.116856 -0.0121378 0
-0.114 -0.0209256 0
-0.108916 -0.0292945 0
-0.10161 -0.0367003 0
-0.0922071 -0.0425536 0
-0.0809748 -0.0462705 0
-0.0683488 -0.0473443 0
-0.0549427 -0.0454426 0
-0.0415323 -0.040525 0
-0.0289956 -0.0329614 0
-0.0181962 -0.023608 0
-0.00981588 -0.0137832 0
-0.00418038 -0.00511064 0
-0.00114995 0.000721255 0
-0.00011883 0.00216129 0
-0.00131408 0.00752703 0
-0.00567294 0.0197186 0
-0.012844 0.0289006 0
-0.0217611 0.0355584 0
-0.0317537 0.0402963 0
-0.0424093 0.0435839 0
-0.053452 0.0456834 0
-0.0646613 0.0466751 0
-0.0758279 0.0465197 0
-0.0867347 0.0451216 0
-0.0971526 0.0423782 0
-0.106842 0.0382142 0
-0.115556 0.032603 0
-0.123044 0.0255793 0
-0.129058 0.0172466 0
-0.133355 0.00778114 0
-0.135702 -0.00256641 0
-0.13589 -0.0134843 0
-0.133729 -0.0245953 0
-0.129069 -0.0353698 0
-0.121835 -0.0451646 0
-0.112068 -0.0532587 0
-0.0999625 -0.0589034 0
-0.0859019 -0.061398 0
-0.0704937 -0.0602031 0
-0.0545777 -0.0550908 0
-0.039189 -0.046321 0
-0.0254447 -0.0347922 0
-0.0143428 -0.0220812 0
-0.00651065 -0.0102802 0
-0.0020064 -0.00164386 0
-0.000276785 0.00176567 0
-0.00149856 0.0103397 0
-0.00642335 0.0261896 0
-0.0144485 0.0376258 0
-0.0243462 0.045648 0
-0.035366 0.0512191 0
-0.0470623 0.0550131 0
-0.0591515 0.057386 0
-0.0714172 0.0584474 0
-0.08366 0.0581567 0
-0.0956747 0.0564061 0
-0.107243 0.0530796 0
-0.118131 0.04809 0
-0.128091 0.0414014 0
-0.136864 0.0330421 0
-0.144178 0.0231126 0
-0.149759 0.0117922 0
-0.153332 -0.00065782 0
-0.154638 -0.0138989 0
-0.153433 -0.0275463 0
-0.149493 -0.0410189 0
-0.142658 -0.0535843 0
-0.132871 -0.0643932 0
-0.120221 -0.0725238 0
-0.105005 -0.0770549 0
-0.0877741 -0.077185 0
-0.0693871 -0.0724118 0
-0.0510054 -0.0627704 0
-0.0340071 -0.0490854 0
-0.0197684 -0.0331285 0
-0.00932563 -0.0175078 0
-0.0030411 -0.00520507 0
-0.000466363 0.00102252 0
-0.0016438 0.013482 0
-0.00701558 0.0333438 0
-0.0157192 0.0472003 0
-0.0264024 0.0566546 0
-0.0382531 0.0630829 0
-0.0508016 0.0673942 0
-0.0637612 0.0700536 0
-0.0769236 0.0712079 0
-0.0901031 0.0708185 0
-0.10311 0.0687655 0
-0.115738 0.0649164 0
-0.127763 0.0591662 0
-0.138938 0.0514611 0
-0.148995 0.0418125 0
-0.157646 0.0303077 0
-0.164587 0.0171182 0
-0.169506 0.0025079 0
-0.172101 -0.0131634 0
-0.17208 -0.0295076 0
-0.169161 -0.0459166 0
-0.163094 -0.0615878 0
-0.153713 -0.075559 0
-0.140979 -0.0867412 0
-0.125053 -0.0939795 0
-0.106379 -0.0961658 0
-0.0857612 -0.0924353 0
-0.0644286 -0.0824612 0
-0.0439925 -0.0668289 0
-0.0262459 -0.0473703 0
-0.0127491 -0.0272056 0
-0.00431622 -0.0102247 0
-0.000702506 -0.000146346 0
-0.00173957 0.0168654 0
-0.00741249 0.0410051 0
-0.0165848 0.0574148 0
-0.0278233 0.0683619 0
-0.0402727 0.0756756 0
-0.053446 0.0805234 0
-0.0670555 0.0834935 0
-0.0809026 0.0847775 0
-0.0948163 0.0843421 0
-0.108624 0.0820555 0
-0.122134 0.0777654 0
-0.135136 0.0713433 0
-0.147387 0.06271 0
-0.158617 0.0518515 0
-0.16853 0.0388323 0
-0.176804 0.0238079 0
-0.183102 0.00703625 0
-0.187087 -0.0111123 0
-0.188434 -0.0302326 0
-0.186818 -0.0497268 0
-0.181911 -0.0687512 0
-0.173429 -0.086259 0
-0.161186 -0.101018 0
-0.145168 -0.111646 0
-0.12564 -0.116703 0
-0.103273 -0.114882 0
-0.0792697 -0.10535 0
-0.0554048 -0.0882409 0
-0.0338853 -0.0652244 0
-0.0168994 -0.0398341 0
-0.0058982 -0.0170303 0
-0.0010019 -0.00185076 0
-0.00177755 0.0203825 0
-0.007584 0.0489674 0
-0.0169873 0.0680282 0
-0.0285213 0.0805211 0
-0.041305 0.0887495 0
-0.0548379 0.0941558 0
-0.0688313 0.0974639 0
-0.0830947 0.0989176 0
-0.097472 0.0984931 0
-0.111807 0.0960472 0
-0.125929 0.091406 0
-0.139639 0.0844137 0
-0.152709 0.0749607 0
-0.164879 0.0630016 0
-0.175856 0.0485722 0
-0.185319 0.0318047 0
-0.192924 0.012943 0
-0.198313 -0.00764557 0
-0.201148 -0.029518 0
-0.201078 -0.0521271 0
-0.197711 -0.0746246 0
-0.190656 -0.0959223 0
-0.179566 -0.114688 0
-0.164214 -0.129345 0
-0.144626 -0.138121 0
-0.121244 -0.139213 0
-0.0951245 -0.131141 0
-0.0680937 -0.113345 0
-0.0427135 -0.0870198 0
-0.0218667 -0.0558714 0
-0.00784967 -0.0260113 0
-0.00138153 -0.00423419 0
-0.00175249 0.0239126 0
-0.0075107 0.057002 0
-0.0168884 0.0787746 0
-0.0284363 0.0928566 0
-0.0412641 0.102025 0
-0.0548598 0.108008 0
-0.0689303 0.111675 0
-0.0832906 0.11333 0
-0.0977973 0.112964 0
-0.112312 0.110426 0
-0.126682 0.105519 0
-0.140732 0.0980603 0
-0.154256 0.0879077 0
-0.167014 0.074983 0
-0.178736 0.0592903 0
-0.189121 0.0409344 0
-0.197842 0.0201382 0
-0.20455 -0.00274316 0
-0.208906 -0.02723 0
-0.210549 -0.0528421 0
-0.209054 -0.078771 0
-0.203939 -0.103945 0
-0.194699 -0.126997 0
-0.180873 -0.146213 0
-0.162186 -0.159527 0
-0.138756 -0.16462 0
-0.111363 -0.159247 0
-0.0817267 -0.141906 0
-0.0526434 -0.112923 0
-0.0276939 -0.0757649 0
-0.0102234 -0.0376054 0
-0.00185794 -0.00747365 0
-0.00166315 0.0273282 0
-0.00718721 0.0648686 0
-0.0162752 0.0893736 0
-0.0275446 0.105075 0
-0.0401114 0.115202 0
-0.0534516 0.121768 0
-0.0672633 0.125798 0
-0.0813624 0.127667 0
-0.0956154 0.127387 0
-0.109901 0.124803 0
-0.124089 0.119701 0
-0.138031 0.11187 0
-0.151551 0.101141 0
-0.164448 0.0874046 0
-0.176491 0.070634 0
-0.187422 0.0509063 0
-0.196954 0.0284192 0
-0.204779 0.00350877 0
-0.210568 -0.0233365 0
-0.213979 -0.0516823 0
-0.214591 -0.0808134 0
-0.211864 -0.109744 0
-0.205147 -0.137156 0
-0.193739 -0.161288 0
-0.177025 -0.179853 0
-0.154708 -0.190041 0
-0.127152 -0.188776 0
-0.0957869 -0.173378 0
-0.0634577 -0.142863 0
-0.0343619 -0.0998697 0
-0.0130566 -0.0522765 0
-0.00244647 -0.0117781 0
-0.00151307 0.0305044 0
-0.00662471 0.0723281 0
-0.0151655 0.0995429 0
-0.0258669 0.116876 0
-0.0378654 0.127966 0
-0.0506245 0.135103 0
-0.0638285 0.139478 0
-0.0772887 0.141546 0
-0.0908783 0.141351 0
-0.104493 0.138739 0
-0.118027 0.133486 0
-0.131363 0.125363 0
-0.144367 0.114174 0
-0.156885 0.0997874 0
-0.168744 0.0821529 0
-0.179749 0.0613227 0
-0.189682 0.0374686 0
-0.198296 0.0108978 0
-0.205303 -0.0179294 0
-0.210405 -0.0485766 0
-0.21323 -0.0804815 0
-0.213216 -0.112818 0
-0.209602 -0.144413 0
-0.201462 -0.173579 0
-0.187821 -0.197918 0
-0.1679 -0.214214 0
-0.141511 -0.218549 0
-0.109596 -0.206884 0
-0.0748078 -0.176475 0
-0.0417815 -0.12838 0
-0.0163675 -0.0704855 0
-0.00316105 -0.0173856 0
-0.00131081 0.0333283 0
-0.00585222 0.0791573 0
-0.0136105 0.109013 0
-0.0234722 0.12797 0
-0.0346086 0.140007 0
-0.0464705 0.147683 0
-0.0587231 0.152355 0
-0.0711688 0.154575 0
-0.0836848 0.154428 0
-0.0961825 0.151775 0
-0.108584 0.146386 0
-0.120807 0.138023 0
-0.132765 0.126476 0
-0.14436 0.111599 0
-0.155487 0.0933268 0
-0.16603 0.0716966 0
-0.17586 0.046858 0
-0.184822 0.019084 0
-0.19271 -0.0112204 0
-0.1993 -0.0435932 0
-0.204285 -0.0776552 0
-0.207136 -0.112808 0
-0.20704 -0.148133 0
-0.202886 -0.182152 0
-0.193352 -0.212519 0
-0.177136 -0.23575 0
-0.153388 -0.24715 0
-0.122361 -0.241225 0
-0.0862294 -0.213054 0
-0.0497927 -0.161264 0
-0.0201537 -0.0926549 0
-0.00401483 -0.0245614 0
-0.00106981 0.0357089 0
-0.00491674 0.085165 0
-0.0116958 0.117542 0
-0.0204806 0.138087 0
-0.0304901 0.151036 0
-0.0411639 0.15919 0
-0.0521453 0.164082 0
-0.0632243 0.166372 0
-0.0742806 0.166203 0
-0.0852427 0.163459 0
-0.0960611 0.157921 0
-0.106695 0.149346 0
-0.117106 0.137522 0
-0.127257 0.1223 0
-0.137117 0.103612 0
-0.146656 0.0814928 0
-0.155845 0.0560811 0
-0.164644 0.0276219 0
-0.172976 -0.00353755 0
-0.180708 -0.0369539 0
-0.187619 -0.0723997 0
-0.193272 -0.109559 0
-0.196874 -0.147876 0
-0.197201 -0.186237 0
-0.192631 -0.222539 0
-0.181345 -0.253233 0
-0.161752 -0.273007 0
-0.133229 -0.274918 0
-0.0971722 -0.251549 0
-0.0581726 -0.198205 0
-0.0243956 -0.11913 0
-0.0050225 -0.0335988 0
-0.000807863 0.0375866 0
-0.00388202 0.0902084 0
-0.00954045 0.124936 0
-0.0170614 0.146998 0
-0.0257228 0.160795 0
-0.0349575 0.169339 0
-0.0443864 0.174344 0
-0.0537869 0.17659 0
-0.0630423 0.176296 0
-0.0721 0.173386 0
-0.080943 0.167656 0
-0.0895736 0.158875 0
-0.0980066 0.146837 0
-0.106268 0.131398 0
-0.114397 0.112503 0
-0.122451 0.0901948 0
-0.130503 0.0646199 0
-0.138632 0.0360119 0
-0.146901 0.00467254 0
-0.155297 -0.0290357 0
-0.163721 -0.0649829 0
-0.17188 -0.103163 0
-0.179076 -0.143473 0
-0.184071 -0.185319 0
-0.185037 -0.22706 0
-0.179689 -0.265346 0
-0.165678 -0.294499 0
-0.141358 -0.30627 0
-0.107037 -0.290574 0
-0.0666504 -0.238565 0
-0.0290631 -0.150134 0
-0.00620474 -0.044826 0
-0.000546368 0.0389408 0
-0.00282689 0.0942089 0
-0.00729482 0.131062 0
-0.0134307 0.154529 0
-0.0205793 0.169075 0
-0.0281732 0.177888 0
-0.0358165 0.182866 0
-0.0432774 0.184929 0
-0.0504469 0.184383 0
-0.0572963 0.181206 0
-0.0638458 0.175228 0
-0.0701455 0.166233 0
-0.0762659 0.154032 0
-0.0822957 0.138494 0
-0.0883435 0.119584 0
-0.0945427 0.0973668 0
-0.101055 0.0720119 0
-0.108069 0.0437633 0
-0.115775 0.0128953 0
-0.124304 -0.0203338 0
-0.133704 -0.0558601 0
-0.143855 -0.0939761 0
-0.154237 -0.135081 0
-0.163715 -0.179238 0
-0.170398 -0.225492 0
-0.171658 -0.271001 0
-0.164433 -0.31008 0
-0.145971 -0.333471 0
-0.11521 -0.328455 0
-0.0749244 -0.281357 0
-0.0341282 -0.185726 0
-0.00759489 -0.0586257 0
-0.000309766 0.039797 0
-0.00184392 0.0971674 0
-0.00513875 0.135867 0
-0.00984834 0.160571 0
-0.0153847 0.175718 0
-0.0211909 0.184645 0
-0.0268655 0.189428 0
-0.0321777 0.19114 0
-0.0370348 0.190198 0
-0.0414397 0.186646 0
-0.0454567 0.180355 0
-0.0491883 0.171138 0
-0.0527645 0.158824 0
-0.0563369 0.143304 0
-0.0600798 0.124564 0
-0.0641926 0.102698 0
-0.0689061 0.0779066 0
-0.0744859 0.0504622 0
-0.0812235 0.0206401 0
-0.089394 -0.0113794 0
-0.0991933 -0.0456148 0
-0.110672 -0.0825913 0
-0.123552 -0.123204 0
-0.136936 -0.168253 0
-0.149051 -0.217679 0
-0.157122 -0.269484 0
-0.15752 -0.318424 0
-0.146395 -0.354714 0
-0.121087 -0.363282 0
-0.0826713 -0.32523 0
-0.0395734 -0.225746 0
-0.00924575 -0.0754663 0
-0.00012573 0.0402325 0
-0.00104026 0.0991806 0
-0.0032826 0.139391 0
-0.00661657 0.16509 0
-0.0105115 0.18063 0
-0.0144361 0.189464 0
-0.0180035 0.193851 0
-0.0210023 0.195028 0
-0.0233708 0.193535 0
-0.0251551 0.189498 0
-0.0264713 0.182836 0
-0.0274799 0.173397 0
-0.0283731 0.161034 0
-0.0293676 0.145661 0
-0.0307011 0.127284 0
-0.0326325 0.106023 0
-0.035445 0.0821081 0
-0.0394514 0.0558467 0
-0.0449972 0.0275389 0
-0.0524483 -0.00265662 0
-0.0621163 -0.0348703 0
-0.0742055 -0.0697677 0
-0.0886983 -0.108655 0
-0.105048 -0.153069 0
-0.121813 -0.203983 0
-0.13634 -0.260581 0
-0.144694 -0.318576 0
-0.142064 -0.368317 0
-0.124062 -0.392988 0
-0.0895342 -0.368467 0
-0.0453894 -0.269752 0
-0.0112326 -0.0959447 0
-2.71182e-05 0.0403853 0
-0.000543238 0.100458 0
-0.00197396 0.141786 0
-0.00408388 0.168139 0
-0.00637669 0.183769 0
-0.00836823 0.192241 0
-0.00971967 0.195993 0
-0.010268 0.196434 0
-0.010005 0.194235 0
-0.0090356 0.189612 0
-0.00753721 0.182539 0
-0.00573332 0.172898 0
-0.00388101 0.160573 0
-0.00226246 0.145498 0
-0.00117827 0.127697 0
-0.000943624 0.107307 0
-0.00188555 0.0845784 0
-0.00434163 0.0598389 0
-0.00866301 0.0334139 0
-0.0152204 0.00547695 0
-0.0243738 -0.0241825 0
-0.0364275 -0.0563125 0
-0.0515837 -0.0924615 0
-0.0697063 -0.13479 0
-0.0898814 -0.185322 0
-0.109909 -0.244687 0
-0.125929 -0.310096 0
-0.132481 -0.372875 0
-0.123484 -0.41543 0
-0.0950744 -0.408963 0
-0.0515465 -0.316929 0
-0.0136469 -0.120824 0
-5.74491e-05 0.0404699 0
-0.000515189 0.101348 0
-0.0015148 0.143327 0
-0.00265517 0.169848 0
-0.00344018 0.185138 0
-0.0034678 0.192891 0
-0.00249788 0.195724 0
-0.000458871 0.195212 0
0.00257253 0.192163 0
0.00641232 0.186876 0
0.0108083 0.179381 0
0.0154642 0.169597 0
0.020055 0.157432 0
0.0242359 0.14284 0
0.027649 0.125857 0
0.0299315 0.106629 0
0.0307258 0.085404 0
0.0296894 0.0625058 0
0.0265028 0.038255 0
0.0208664 0.0128296 0
0.012465 -0.0139804 0
0.000965368 -0.0429613 0
-0.0139827 -0.0757083 0
-0.0326046 -0.114799 0
-0.054627 -0.163116 0
-0.0786301 -0.222862 0
-0.101326 -0.293204 0
-0.117132 -0.367409 0
-0.118546 -0.428479 0
-0.0986664 -0.444203 0
-0.0579235 -0.36596 0
-0.0165727 -0.151044 0
-0.000283065 0.0408104 0
-0.00118422 0.102366 0
-0.00229374 0.144418 0
-0.00280913 0.170413 0
-0.00220193 0.18475 0
-0.000212409 0.191317 0
0.00322827 0.192888 0
0.0080317 0.191206 0
0.0139847 0.187185 0
0.0208025 0.181196 0
0.0281519 0.173315 0
0.0356676 0.163491 0
0.0429637 0.151651 0
0.0496422 0.137761 0
0.0553004 0.121864 0
0.0595423 0.104098 0
0.0619925 0.0846909 0
0.0623126 0.0639351 0
0.0602139 0.0421109 0
0.0554574 0.0193666 0
0.0478223 -0.00448088 0
0.0370708 -0.0302097 0
0.0229186 -0.0593596 0
0.00494617 -0.0945534 0
-0.0172614 -0.139132 0
-0.043302 -0.196803 0
-0.0709833 -0.268886 0
-0.0953546 -0.35155 0
-0.108129 -0.430149 0
-0.09932 -0.471222 0
-0.0641716 -0.414832 0
-0.0200388 -0.187655 0
-0.000817255 0.0419107 0
-0.00289923 0.104249 0
-0.00483427 0.145579 0
-0.005114 0.170046 0
-0.00318411 0.18258 0
0.000960406 0.187353 0
0.00709364 0.187277 0
0.014885 0.184221 0
0.0239467 0.179154 0
0.0338721 0.172483 0
0.0442444 0.164307 0
0.054638 0.15459 0
0.0646212 0.143272 0
0.0737615 0.130322 0
0.0816322 0.115775 0
0.0878252 0.0997517 0
0.091967 0.0824447 0
0.0937369 0.0640914 0
0.0928811 0.0449092 0
0.0892145 0.0249915 0
0.0825947 0.00414914 0
0.0728483 -0.0183417 0
0.0597184 -0.0439454 0
0.042818 -0.0750949 0
0.0216374 -0.115202 0
-0.00438801 -0.168666 0
-0.0347975 -0.238932 0
-0.0661885 -0.325743 0
-0.0905882 -0.418782 0
-0.0954092 -0.486577 0
-0.0694865 -0.460548 0
-0.0239321 -0.231626 0
-0.00186351 0.0445915 0
-0.00621243 0.107999 0
-0.00983728 0.147389 0
-0.0101998 0.168879 0
-0.00685116 0.178469 0
-0.000244591 0.180713 0
0.00894233 0.178597 0
0.0200482 0.174004 0
0.0324755 0.167883 0
0.0456886 0.160617 0
0.0591959 0.152294 0
0.0725299 0.142876 0
0.0852371 0.132296 0
0.0968756 0.120518 0
0.107021 0.107562 0
0.115279 0.0935144 0
0.121298 0.0785211 0
0.124789 0.0627538 0
0.125537 0.0463549 0
0.123398 0.0293513 0
0.118278 0.0115294 0
0.110062 -0.0077592 0
0.0985072 -0.0298436 0
0.083203 -0.0569922 0
0.063537 -0.0924581 0
0.0386625 -0.14051 0
0.00781424 -0.20583 0
-0.0281962 -0.291443 0
-0.0635121 -0.393366 0
-0.0842966 -0.486387 0
-0.0722413 -0.498716 0
-0.027848 -0.283406 0
-0.00378077 0.0502357 0
-0.0119566 0.11488 0
-0.0181141 0.150291 0
-0.0185283 0.166754 0
-0.0132611 0.171978 0
-0.00355374 0.17089 0
0.00929217 0.166388 0
0.0242126 0.160187 0
0.040386 0.153099 0
0.0571658 0.145408 0
0.074014 0.137147 0
0.0904521 0.12825 0
0.106035 0.118632 0
0.120344 0.108236 0
0.132985 0.097058 0
0.1436 0.0851457 0
0.15188 0.0725898 0
0.15758 0.059494 0
0.16052 0.0459267 0
0.160588 0.0318513 0
0.157709 0.0170286 0
0.151792 0.000874891 0
0.142598 -0.0177291 0
0.129667 -0.0408716 0
0.11225 -0.0714958 0
0.0891907 -0.113539 0
0.0590292 -0.171791 0
0.0207614 -0.251203 0
-0.0235064 -0.354022 0
-0.0618519 -0.466601 0
-0.0693999 -0.52301 0
-0.0308258 -0.34208 0
-0.00713793 0.0611544 0
-0.0211386 0.126137 0
-0.0300453 0.154097 0
-0.029489 0.162805 0
-0.0209331 0.162104 0
-0.00685524 0.156979 0
0.0106857 0.149912 0
0.0302208 0.142208 0
0.0507485 0.134377 0
0.0715705 0.126527 0
0.0921542 0.118596 0
0.112054 0.110464 0
0.130872 0.102017 0
0.148241 0.0931732 0
0.163826 0.0838959 0
0.177326 0.074192 0
0.18849 0.0640993 0
0.197115 0.0536599 0
0.203054 0.042881 0
0.206205 0.0316789 0
0.206482 0.0198033 0
0.203765 0.00673414 0
0.197829 -0.0084591 0
0.188164 -0.0275456 0
0.173814 -0.0530542 0
0.153278 -0.0883859 0
0.124452 -0.137957 0
0.084988 -0.207305 0
0.0339533 -0.302617 0
-0.021909 -0.423798 0
-0.0555555 -0.524618 0
-0.0308475 -0.403753 0
-0.0125453 0.0808377 0
-0.0338966 0.141806 0
-0.0433217 0.156761 0
-0.0383469 0.154611 0
-0.0233618 0.146757 0
-0.00247103 0.137357 0
0.0215588 0.127963 0
0.0470191 0.119161 0
0.0728982 0.111017 0
0.0985608 0.103403 0
0.123559 0.0961383 0
0.147535 0.0890446 0
0.17018 0.0819734 0
0.191211 0.0748164 0
0.210371 0.0675078 0
0.227432 0.0600182 0
0.2422 0.052342 0
0.254517 0.0444753 0
0.264258 0.0363852 0
0.271315 0.0279665 0
0.275571 0.0189835 0
0.276852 0.00898988 0
0.274863 -0.00279064 0
0.269012 -0.017698 0
0.258171 -0.0377098 0
0.240483 -0.0655068 0
0.213241 -0.104768 0
0.172977 -0.160766 0
0.116361 -0.241507 0
0.044304 -0.35699 0
-0.0213084 -0.492168 0
-0.0238098 -0.458411 0
-0.0191493 0.112532 0