# vtk DataFile Version 2.0
Lid-driven cavity
ASCII
DATASET STRUCTURED_POINTS
DIMENSIONS 32 32 1
ORIGIN 0.015625 0.015625 0
SPACING 0.03125 0.03125 1
POINT_DATA 1024
SCALARS pressure double 1
LOOKUP_TABLE default
12.9551
12.8856
12.7846
12.6915
12.6273
12.6012
12.6167
12.6753
12.7788
12.9298
13.1313
13.3859
13.695
14.0574
14.4683
14.9189
15.3957
15.8811
16.3533
16.7872
17.1582
17.4447
17.6317
17.7136
17.6958
17.5943
17.4336
17.2438
17.0568
16.9031
16.8086
16.7874
13.0246
12.9527
12.8718
12.8029
12.7591
12.7473
12.7709
12.8321
12.9334
13.0774
13.2671
13.5049
13.7921
14.1275
14.5072
14.9229
15.3626
15.8107
16.2469
16.6486
16.993
17.2606
17.4381
17.5209
17.5145
17.4344
17.303
17.1468
16.9927
16.8654
16.7851
16.7662
13.1285
13.0284
12.9448
12.8846
12.8518
12.8487
12.8765
12.937
13.0323
13.1655
13.34
13.5588
13.824
14.1355
14.4903
14.8817
15.2989
15.7272
16.1471
16.5362
16.8718
17.1339
17.3089
17.3919
17.3886
17.3141
17.191
17.0449
16.9006
16.7796
16.6992
16.6728
13.2222
13.0846
12.9871
12.9255
12.8958
12.8951
12.9218
12.9763
13.0606
13.1782
13.3333
13.5301
13.772
14.0607
14.3951
14.7703
15.1766
15.5995
16.0195
16.4135
16.757
17.028
17.2107
17.2986
17.2962
17.219
17.0903
16.9369
16.784
16.6525
16.5583
16.5136
13.2699
13.0931
12.9769
12.9079
12.8749
12.8702
12.8894
12.9317
12.9987
13.0946
13.2246
13.3946
13.6101
13.875
14.1906
14.5543
14.9581
15.3873
15.822
16.2375
16.607
16.9045
17.1103
17.214
17.2178
17.1364
16.9945
16.8213
16.6447
16.4878
16.3673
16.2957
13.2407
13.0262
12.8899
12.8099
12.7684
12.7534
12.7582
12.7808
12.8229
12.8892
12.9864
13.1225
13.3054
13.5419
13.8363
14.1889
14.5945
15.0381
15.5002
15.9545
16.3705
16.7173
16.9686
17.1077
17.1316
17.0527
16.8962
16.6948
16.482
16.2858
16.127
16.0204
13.1062
12.8566
12.7005
12.6071
12.5525
12.521
12.5038
12.498
12.5056
12.5321
12.586
12.6773
12.8171
13.0155
13.2805
13.6162
14.0215
14.483
14.9824
15.4926
15.9792
16.4045
16.7331
16.9384
17.0083
16.949
16.7847
16.5522
16.2928
16.0436
15.8334
15.6827
12.8396
12.5583
12.383
12.274
12.2017
12.1469
12.0991
12.0548
12.0161
11.9895
11.9851
12.0158
12.0957
12.2391
12.4587
12.7635
13.1576
13.6331
14.1749
14.7564
15.34
15.88
16.3291
16.6458
16.8032
16.7959
16.6428
16.3839
16.0708
15.755
15.4785
15.2715
12.4156
12.1062
11.9123
11.7855
11.6904
11.6047
11.5162
11.4208
11.3209
11.2238
11.1413
11.0887
11.0842
11.1466
11.2945
11.5436
11.9043
12.3788
12.9595
13.6231
14.3301
15.0267
15.6509
16.1412
16.4482
16.5463
16.4417
16.1737
15.8061
15.4105
15.0502
14.7708
11.8113
11.4777
11.2656
11.118
10.9941
10.8684
10.7274
10.566
10.3864
10.1965
10.0096
9.84369
9.72079
9.66562
9.70381
9.85941
10.1517
10.5952
11.1979
11.9444
12.7965
13.6935
14.5571
15.3006
15.8431
16.1271
16.1344
15.895
15.4832
14.9978
14.5337
14.161
11.0073
10.654
10.4237
10.2515
10.0917
9.91573
9.7082
9.46302
9.18158
8.87183
8.54805
8.23071
7.9461
7.7254
7.60293
7.61346
7.78851
8.1526
8.74213
9.55656
10.564
11.7004
12.8716
13.9621
14.8504
15.4328
15.6492
15.5055
15.0794
14.5012
13.9117
13.4197
9.9895
9.62116
9.37241
9.17131
8.9675
8.72966
8.44017
8.09123
7.68282
7.22212
6.72376
6.2102
5.71207
5.26763
4.92134
4.72097
4.71302
4.93675
5.45483
6.30011
7.4536
8.85387
10.395
11.932
13.2958
14.3211
14.8843
14.943
14.5618
13.902
13.1665
12.5238
8.75019
8.37203
8.10445
7.86977
7.61365
7.30188
6.91437
6.44089
5.87913
5.23452
4.5211
3.76269
2.99392
2.26051
1.61823
1.12992
0.860314
0.867954
1.2348
2.04834
3.31158
4.9749
6.92875
9.00316
10.9792
12.6173
13.7056
14.121
13.8851
13.1786
12.2816
11.4515
7.28964
6.90705
6.6205
6.348
6.0319
5.63517
5.13482
4.51745
3.77747
2.9175
1.94986
0.898746
-0.197827
-1.28683
-2.30059
-3.15942
-3.77732
-4.07091
-3.95038
-3.25763
-1.95305
-0.063176
2.31121
4.98642
7.69889
10.1288
11.9532
12.9293
12.9907
12.3079
11.245
10.1867
5.61647
5.23492
4.92991
4.61676
4.23518
3.74536
3.12103
2.34485
1.40703
0.306178
-0.948281
-2.33299
-3.8076
-5.31247
-6.76817
-8.07757
-9.13147
-9.8182
-10.036
-9.5749
-8.32956
-6.29155
-3.53724
-0.246157
3.28902
6.67337
9.45836
11.2415
11.8092
11.2682
10.0552
8.72522
3.74749
3.37227
3.05049
2.69645
2.24783
1.66206
0.909164
-0.0327626
-1.17867
-2.53502
-4.0965
-5.84192
-7.7299
-9.69551
-11.6486
-13.4752
-15.0427
-16.2107
-16.8464
-16.735
-15.6745
-13.6076
-10.57
-6.71352
-2.33395
2.11911
6.07269
8.93243
10.2693
10.0454
8.72915
7.08357
1.70644
1.34227
1.00718
0.615922
0.104647
-0.57214
-1.44856
-2.55174
-3.90256
-5.51348
-7.3844
-9.49754
-11.812
-14.2591
-16.7399
-19.1252
-21.2608
-22.9773
-24.1064
-24.4412
-23.6996
-21.7534
-18.582
-14.2843
-9.12389
-3.56818
1.70841
5.90619
8.31457
8.64525
7.31461
5.31259
-0.478281
-0.827736
-1.17046
-1.58993
-2.15146
-2.904
-3.8865
-5.13199
-6.66795
-8.51355
-10.6748
-13.1382
-15.8647
-18.7838
-21.79
-24.7418
-27.4663
-29.7681
-31.4448
-32.2894
-31.9856
-30.321
-27.203
-22.6552
-16.87
-10.2811
-3.61656
2.13446
5.93057
7.11158
5.90863
3.51674
-2.77696
-3.10975
-3.45172
-3.8836
-4.47289
-5.27327
-6.32972
-7.68212
-9.36516
-11.4052
-13.8147
-16.5853
-19.6807
-23.03
-26.5234
-30.011
-33.3053
-36.1907
-38.4368
-39.8184
-40.0293
-38.792
-35.9253
-31.362
-25.1874
-17.7426
-9.73819
-2.30102
3.18076
5.55502
4.68455
1.8835
-5.16273
-5.47942
-5.809
-6.22915
-6.81147
-7.61705
-8.69915
-10.1059
-11.8799
-14.0549
-16.6499
-19.6614
-23.0564
-26.7647
-30.6744
-34.6301
-38.4352
-41.86
-44.655
-46.5684
-47.3191
-46.607
-44.1664
-39.8275
-33.5435
-25.5064
-16.3229
-7.16963
0.24927
4.1929
3.93237
0.728894
-7.61657
-7.92122
-8.22277
-8.59652
-9.1225
-9.87411
-10.9167
-12.3089
-14.102
-16.3371
-19.0389
-22.2082
-25.8147
-29.7894
-34.0198
-38.3476
-42.5715
-46.4543
-49.7355
-52.1461
-53.4151
-53.2547
-51.358
-47.443
-41.3217
-32.993
-22.8718
-12.0673
-2.51585
3.40122
4.1181
0.567922
-10.1334
-10.4347
-10.6868
-10.9658
-11.3682
-11.9884
-12.9097
-14.2044
-15.9335
-18.1444
-20.8661
-24.1022
-27.8236
-31.9621
-36.4052
-40.9941
-45.5261
-49.762
-53.4375
-56.277
-58.0065
-58.3606
-57.0378
-53.6645
-47.9105
-39.5591
-28.7576
-16.4156
-4.5674
3.77576
5.96651
2.2195
-12.7303
-13.0421
-13.214
-13.3305
-13.5201
-13.9112
-14.6141
-15.7186
-17.2951
-19.396
-22.0518
-25.2664
-29.0106
-33.2155
-37.7677
-42.5085
-47.2356
-51.7114
-55.6734
-58.8473
-60.9561
-61.7413
-60.9247
-58.0987
-52.7967
-44.584
-33.2881
-19.4888
-5.14178
6.19408
10.5668
6.9522
-15.4591
-15.8008
-15.8436
-15.701
-15.559
-15.6012
-15.9758
-16.7929
-18.1327
-20.0492
-22.5711
-25.6984
-29.3976
-33.5958
-38.1767
-42.98
-47.8042
-52.4139
-56.5512
-59.9469
-62.3296
-63.4303
-62.9615
-60.55
-55.6324
-47.5454
-35.7783
-20.4623
-3.26691
11.8642
19.4915
16.6704
-18.4303
-18.8219
-18.6514
-18.1057
-17.474
-17.0231
-16.9508
-17.3879
-18.4189
-20.0936
-22.4332
-25.4289
-29.0389
-33.183
-37.7399
-42.5462
-47.3996
-52.0665
-56.2921
-59.8116
-62.3574
-63.6556
-63.3757
-61.1055
-56.2571
-48.0553
-35.601
-18.4633
2.20556
22.3418
34.9068
34.1326
-21.8623
-22.3075
-21.7643
-20.5921
-19.2571
-18.1422
-17.5009
-17.4757
-18.1443
-19.5429
-21.6771
-24.5233
-28.0269
-32.0978
-36.6072
-41.387
-46.2329
-50.9109
-55.166
-58.7321
-61.3377
-62.7022
-62.4579
-60.0908
-54.9201
-45.9803
-32.1986
-12.5986
12.5567
39.4971
59.6421
63.1899
-26.1929
-26.6209
-25.3827
-23.2215
-20.8911
-18.9154
-17.5882
-17.0408
-17.3221
-18.4401
-20.3745
-23.0808
-26.4875
-30.4915
-34.9551
-39.7043
-44.5311
-49.1986
-53.4476
-57.0039
-59.5804
-60.8716
-60.495
-57.7839
-51.8792
-41.5738
-25.3942
-1.95284
29.1612
65.4121
97.1683
109.038
-32.3448
-32.4185
-29.7968
-26.038
-22.3145
-19.264
-17.1594
-16.0671
-15.9747
-16.8421
-18.6125
-21.214
-24.5551
-28.5183
-32.9558
-37.6867
-42.4983
-47.1483
-51.3697
-54.873
-57.3442
-58.4335
-57.7261
-54.3977
-47.3088
-34.9324
-15.292
13.7063
53.3909
102.171
151.388
178.49
-42.3844
-40.8448
-35.3106
-28.9306
-23.3052
-18.9904
-16.0809
-14.483
-14.0832
-14.7717
-16.4457
-19.0019
-22.3275
-26.2901
-30.7319
-35.4651
-40.2712
-44.9016
-49.0782
-52.4911
-54.7901
-55.5647
-54.3068
-50.0727
-41.3324
-26.1539
-1.9676
34.2245
85.1975
151.504
225.984
280.242
-61.1859
-53.4685
-41.6712
-31.1271
-23.1429
-17.5427
-13.9352
-11.9916
-11.448
-12.1046
-13.8058
-16.4171
-19.8059
-23.828
-28.3175
-33.0816
-37.8972
-42.5094
-46.6281
-49.9201
-51.9919
-52.3576
-50.3834
-44.9541
-34.1715
-15.6627
13.7954
58.3316
122.877
212.148
324.566
424.741
-100.017
-69.6969
-45.6641
-29.6768
-19.5335
-13.2537
-9.59532
-7.84012
-7.56287
-8.49665
-10.4571
-13.2973
-16.8797
-21.0583
-25.6675
-30.515
-35.3777
-39.9975
-44.0743
-47.2529
-49.0974
-49.0431
-46.3184
-39.5771
-26.7361
-5.06625
29.2412
81.5382
159.708
276.348
449.838
659.482
-195.15
-74.6718
-32.8767
-16.0181
-7.94949
-3.76539
-1.77238
-1.28522
-1.9757
-3.65763
-6.20368
-9.50613
-13.4549
-17.924
-22.7628
-27.7904
-32.7917
-37.5127
-41.6515
-44.8427
-46.6248
-46.381
-43.2276
-35.7314
-21.8121
1.40494
38.0063
94.1004
180.018
317.546
565.161
1075.36
VECTORS velocity double
7.43428e-05 -7.43429e-05 0
0.000139685 9.00087e-06 0
-1.4517e-05 0.000145201 0
-0.000426383 0.000266666 0
-0.00105106 0.000358014 0
-0.00183227 0.00042319 0
-0.00272537 0.000469915 0
-0.00369883 0.000503545 0
-0.00472798 0.000525606 0
-0.00578796 0.00053437 0
-0.00684842 0.000526089 0
-0.00787075 0.000496239 0
-0.00880759 0.000440604 0
-0.00960437 0.000356176 0
-0.0102025 0.000241952 0
-0.0105441 9.9628e-05 0
-0.0105778 -6.59397e-05 0
-0.0102651 -0.000246703 0
-0.00958874 -0.000429677 0
-0.00856065 -0.000598421 0
-0.00722753 -0.000734696 0
-0.00567195 -0.000820883 0
-0.00400807 -0.000842998 0
-0.00237125 -0.000793822 0
-0.000902016 -0.000675411 0
0.000273595 -0.000500201 0
0.00106413 -0.000290334 0
0.00142852 -7.40595e-05 0
0.00138663 0.000115948 0
0.00102757 0.000243117 0
0.00052122 0.000263231 0
0.000128994 0.000128994 0
-1.24711e-05 -0.000136215 0
-0.00028441 0.000277469 0
-0.00110059 0.000847114 0
-0.00248081 0.00135683 0
-0.00433887 0.00175059 0
-0.00656485 0.0020378 0
-0.00905938 0.00224294 0
-0.0117387 0.00238335 0
-0.0145268 0.00246305 0
-0.0173444 0.00247448 0
-0.020101 0.00240302 0
-0.0226913 0.00223188 0
-0.0249959 0.00194647 0
-0.0268867 0.0015379 0
-0.0282344 0.00100601 0
-0.0289189 0.000361709 0
-0.0288418 -0.000371466 0
-0.0279393 -0.0011563 0
-0.0261963 -0.00193954 0
-0.023657 -0.00265591 0
-0.0204332 -0.00323411 0
-0.0167047 -0.00360555 0
-0.0127118 -0.0037151 0
-0.00873771 -0.00353267 0
-0.00508033 -0.00306318 0
-0.00201617 -0.00235221 0
0.000240142 -0.00148517 0
0.00157531 -0.000578777 0
0.00200678 0.000231079 0
0.00169837 0.000795465 0
0.000964258 0.000951341 0
0.00026969 0.000527678 0
-0.000186059 6.23153e-05 0
-0.00100729 0.00117211 0
-0.00270739 0.00246876 0
-0.00519988 0.0036079 0
-0.00833855 0.00449626 0
-0.0119709 0.00515043 0
-0.0159591 0.00561305 0
-0.0201795 0.00591299 0
-0.024512 0.00605403 0
-0.0288293 0.00601837 0
-0.0329895 0.00577598 0
-0.0368351 0.00529468 0
-0.0401958 0.00454905 0
-0.0428972 0.00352753 0
-0.0447712 0.00223802 0
-0.0456689 0.000711974 0
-0.0454748 -0.00099293 0
-0.0441213 -0.00279085 0
-0.0416011 -0.00456828 0
-0.0379785 -0.00618901 0
-0.0333979 -0.00750536 0
-0.0280863 -0.0083744 0
-0.022347 -0.0086784 0
-0.0165429 -0.00834763 0
-0.0110665 -0.00738201 0
-0.00629763 -0.00586637 0
-0.00255131 -0.00397363 0
-2.34243e-05 -0.00195337 0
0.00125708 -0.000106305 0
0.00145779 0.00124055 0
0.000945583 0.00175257 0
0.000284617 0.00108199 0
-0.00039077 0.000639144 0
-0.00185465 0.00288039 0
-0.00455913 0.00516505 0
-0.00825652 0.00710149 0
-0.0127147 0.00859955 0
-0.0177342 0.00969891 0
-0.0231446 0.0104632 0
-0.0287915 0.0109301 0
-0.034521 0.0110989 0
-0.0401687 0.0109384 0
-0.0455545 0.010402 0
-0.0504841 0.00944378 0
-0.0547551 0.00803162 0
-0.0581663 0.00615763 0
-0.0605301 0.00384567 0
-0.0616846 0.00115648 0
-0.0615069 -0.00180918 0
-0.0599247 -0.00491026 0
-0.0569265 -0.0079673 0
-0.0525734 -0.0107657 0
-0.047011 -0.0130715 0
-0.0404768 -0.0146541 0
-0.0332989 -0.0153159 0
-0.0258849 -0.0149282 0
-0.0186954 -0.0134673 0
-0.0122004 -0.0110449 0
-0.00681888 -0.00792293 0
-0.00284889 -0.00450196 0
-0.000402517 -0.0012846 0
0.00063993 0.00117569 0
0.000647511 0.00232206 0
0.000227185 0.00159379 0
-0.000606221 0.00163614 0
-0.00274858 0.00548964 0
-0.00650649 0.00901819 0
-0.0114445 0.0118837 0
-0.0172286 0.0140597 0
-0.0236075 0.0156371 0
-0.0303815 0.0167094 0
-0.0373729 0.0173223 0
-0.0444045 0.0174678 0
-0.0512869 0.0170996 0
-0.0578158 0.0161555 0
-0.0637746 0.0145787 0
-0.0689423 0.0123353 0
-0.0731032 0.00942616 0
-0.0760581 0.00589575 0
-0.0776347 0.00183747 0
-0.0776988 -0.00260372 0
-0.0761614 -0.00723526 0
-0.0729867 -0.0118152 0
-0.0682077 -0.01605 0
-0.0619439 -0.0196134 0
-0.0544153 -0.0221751 0
-0.0459495 -0.0234386 0
-0.036979 -0.02319 0
-0.028022 -0.0213519 0
-0.0196416 -0.0180358 0
-0.0123788 -0.0135764 0
-0.00666694 -0.0085304 0
-0.00274047 -0.00362901 0
-0.000566462 0.000303644 0
0.000186673 0.00243338 0
0.000134245 0.00195522 0
-0.000822866 0.00306522 0
-0.0036459 0.00902594 0
-0.00845477 0.0140487 0
-0.0146188 0.0179552 0
-0.0216982 0.0208516 0
-0.0293899 0.0229157 0
-0.0374689 0.0242838 0
-0.0457418 0.0250123 0
-0.0540175 0.0250852 0
-0.0620937 0.0244409 0
-0.0697535 0.0230029 0
-0.0767696 0.0207062 0
-0.0829112 0.0175171 0
-0.0879528 0.0134469 0
-0.0916834 0.00856045 0
-0.0939151 0.0029811 0
-0.0944911 -0.00310717 0
-0.0932907 -0.0094696 0
-0.0902357 -0.0158106 0
-0.0853095 -0.0217598 0
-0.0785827 -0.0268942 0
-0.0702348 -0.0307708 0
-0.0605717 -0.0329718 0
-0.0500337 -0.0331654 0
-0.0391878 -0.0311795 0
-0.0286943 -0.0270822 0
-0.0192393 -0.0212476 0
-0.0114317 -0.0143787 0
-0.00567985 -0.00745902 0
-0.00208475 -0.00163544 0
-0.000386139 0.00192072 0
2.23547e-05 0.00211182 0
-0.00103318 0.00492127 0
-0.00451285 0.0134726 0
-0.0103289 0.0202269 0
-0.0176613 0.0252734 0
-0.0259698 0.0289213 0
-0.0349047 0.0314726 0
-0.0442212 0.0331224 0
-0.0537173 0.0339427 0
-0.0631976 0.0339107 0
-0.0724562 0.0329501 0
-0.0812732 0.0309706 0
-0.0894178 0.0278992 0
-0.0966537 0.0237015 0
-0.102746 0.0183961 0
-0.107466 0.0120628 0
-0.110604 0.00484762 0
-0.111966 -0.00303554 0
-0.111389 -0.0113186 0
-0.10874 -0.0196655 0
-0.103938 -0.0276332 0
-0.0969863 -0.0346991 0
-0.0880043 -0.0402957 0
-0.0772533 -0.043861 0
-0.0651593 -0.0449083 0
-0.0523207 -0.043121 0
-0.0394906 -0.0384642 0
-0.0275161 -0.0312951 0
-0.0172236 -0.0224314 0
-0.00925837 -0.0131234 0
-0.0039207 -0.00490386 0
-0.0010658 0.000635635 0
-0.000105785 0.00202838 0
-0.00122903 0.00718348 0
-0.00531597 0.018777 0
-0.0120581 0.0274807 0
-0.0204624 0.0337564 0
-0.0298996 0.0381841 0
-0.0399813 0.0412264 0
-0.0504496 0.0431534 0
-0.0611008 0.0440591 0
-0.0717422 0.043916 0
-0.0821722 0.0426334 0
-0.0921744 0.0401066 0
-0.101519 0.0362521 0
-0.109965 0.0310302 0
-0.117265 0.0244598 0
-0.123172 0.0166267 0
-0.127441 0.00768931 0
-0.129836 -0.0021192 0
-0.130146 -0.0125019 0
-0.128178 -0.0230989 0
-0.123778 -0.033402 0
-0.11687 -0.0427896 0
-0.107495 -0.050563 0
-0.0958429 -0.0559965 0
-0.0822962 -0.0584136 0
-0.0674539 -0.0572966 0
-0.0521399 -0.0524327 0
-0.0373611 -0.0440798 0
-0.024195 -0.0331053 0
-0.0135931 -0.0210166 0
-0.00614169 -0.00979971 0
-0.00187786 -0.00158724 0
-0.000254611 0.00166799 0
-0.00140126 0.00981377 0
-0.00601998 0.0248524 0
-0.0135714 0.0356988 0
-0.022914 0.0432851 0
-0.0333449 0.0485235 0
-0.0444458 0.0520696 0
-0.0559517 0.0542844 0
-0.067663 0.0552906 0
-0.0793952 0.0550582 0
-0.0909561 0.0534821 0
-0.102137 0.0504411 0
-0.112712 0.0458363 0
-0.122435 0.0396155 0
-0.131048 0.0317882 0
-0.138279 0.0224356 0
-0.143848 0.0117176 0
-0.147476 -0.000123233 0
-0.1489 -0.0127639 0
-0.14787 -0.0258346 0
-0.144161 -0.0387756 0
-0.137611 -0.0508744 0
-0.128162 -0.0613022 0
-0.115912 -0.0691598 0
-0.101157 -0.0735517 0
-0.0844532 -0.0737044 0
-0.0666509 -0.0691413 0
-0.0488912 -0.0599097 0
-0.032514 -0.0468187 0
-0.0188417 -0.0315775 0
-0.00885313 -0.0166788 0
-0.00287013 -0.004955 0
-0.000435501 0.000977875 0
-0.00154015 0.0127552 0
-0.00658869 0.0315782 0
-0.0147975 0.0447332 0
-0.024909 0.0537048 0
-0.0361628 0.0597886 0
-0.0481191 0.0638616 0
-0.0605104 0.0663896 0
-0.0731444 0.0675307 0
-0.0858488 0.0672547 0
-0.0984441 0.0654418 0
-0.110732 0.0619507 0
-0.122492 0.0566613 0
-0.133479 0.0495004 0
-0.14342 0.0404583 0
-0.152025 0.0296006 0
-0.158982 0.0170783 0
-0.163973 0.00313559 0
-0.166687 -0.0118846 0
-0.166826 -0.0276051 0
-0.164101 -0.0434384 0
-0.158265 -0.0585987 0
-0.149151 -0.0721395 0
-0.136733 -0.0829914 0
-0.121183 -0.0900247 0
-0.102955 -0.0921636 0
-0.0828601 -0.0885791 0
-0.062117 -0.0789747 0
-0.042306 -0.0639418 0
-0.0251642 -0.0452685 0
-0.0121799 -0.0259606 0
-0.00410388 -0.00973218 0
-0.000662915 -0.000120541 0
-0.00163624 0.0159316 0
-0.00698742 0.0388015 0
-0.0156692 0.0544005 0
-0.0263454 0.0648252 0
-0.0382155 0.0717922 0
-0.0508237 0.0764225 0
-0.0639025 0.0792989 0
-0.0772685 0.0806214 0
-0.0907627 0.0803625 0
-0.104221 0.078387 0
-0.117457 0.0745302 0
-0.13026 0.0686451 0
-0.142387 0.0606298 0
-0.153563 0.0504467 0
-0.163483 0.0381366 0
-0.171817 0.0238325 0
-0.178216 0.00777169 0
-0.182328 -0.0096943 0
-0.183821 -0.0281645 0
-0.182362 -0.0470616 0
-0.177622 -0.0655526 0
-0.169321 -0.0825996 0
-0.157288 -0.0969834 0
-0.141526 -0.107344 0
-0.122325 -0.112274 0
-0.100373 -0.110514 0
-0.0768777 -0.101278 0
-0.0535953 -0.0847321 0
-0.0326816 -0.0625338 0
-0.0162437 -0.0381176 0
-0.00564563 -0.0162493 0
-0.000953275 -0.00173673 0
-0.00168139 0.0192492 0
-0.00718637 0.04634 0
-0.0161282 0.0644857 0
-0.0271345 0.0764225 0
-0.03938 0.0843103 0
-0.052397 0.0895295 0
-0.0659175 0.0927912 0
-0.0797661 0.0943437 0
-0.0937972 0.0941655 0
-0.107862 0.0921065 0
-0.121791 0.0879763 0
-0.135386 0.0815971 0
-0.148414 0.0728331 0
-0.160607 0.0616122 0
-0.171659 0.047944 0
-0.181237 0.0319361 0
-0.188981 0.0138106 0
-0.194517 -0.00608402 0
-0.197493 -0.0273066 0
-0.197545 -0.0493255 0
-0.194279 -0.0712954 0
-0.187309 -0.0921276 0
-0.176304 -0.110494 0
-0.161067 -0.124832 0
-0.141652 -0.133402 0
-0.118535 -0.134455 0
-0.0927947 -0.126573 0
-0.0662538 -0.10926 0
-0.041436 -0.0837372 0
-0.0211419 -0.0536462 0
-0.00755981 -0.0249008 0
-0.00132368 -0.00401369 0
-0.00166988 0.0226005 0
-0.00716436 0.0539882 0
-0.0161324 0.0747474 0
-0.0272098 0.0882445 0
-0.0395613 0.0970854 0
-0.0527089 0.102919 0
-0.0663812 0.106594 0
-0.0804079 0.108416 0
-0.0946553 0.108372 0
-0.108991 0.1063 0
-0.123263 0.101984 0
-0.137293 0.0952145 0
-0.150869 0.085819 0
-0.163739 0.0736892 0
-0.175618 0.0587993 0
-0.186187 0.0412273 0
-0.195098 0.0211731 0
-0.201982 -0.00102505 0
-0.206479 -0.0248931 0
-0.208212 -0.0499536 0
-0.206753 -0.0753932 0
-0.201625 -0.100128 0
-0.192341 -0.122782 0
-0.178472 -0.141649 0
-0.159785 -0.154687 0
-0.13644 -0.159633 0
-0.109255 -0.154321 0
-0.0799692 -0.13734 0
-0.0513572 -0.109087 0
-0.0269271 -0.07302 0
-0.00990272 -0.0361334 0
-0.00179129 -0.00712866 0
-0.00159949 0.0258699 0
-0.00691241 0.0615263 0
-0.015662 0.0849269 0
-0.0265372 0.100018 0
-0.0387064 0.109833 0
-0.0516806 0.116293 0
-0.0651808 0.120393 0
-0.0790374 0.122501 0
-0.0931262 0.122623 0
-0.10733 0.120588 0
-0.121521 0.116158 0
-0.135543 0.109093 0
-0.149214 0.0991867 0
-0.162318 0.0862956 0
-0.174605 0.0703598 0
-0.185795 0.0514258 0
-0.195577 0.0296669 0
-0.203614 0.0054024 0
-0.209552 -0.0208856 0
-0.21303 -0.0487501 0
-0.213622 -0.077464 0
-0.210791 -0.106016 0
-0.203906 -0.133064 0
-0.1923 -0.156841 0
-0.175404 -0.175077 0
-0.152976 -0.185016 0
-0.12543 -0.183668 0
-0.0942365 -0.168472 0
-0.0622426 -0.138561 0
-0.0335914 -0.0966277 0
-0.0127164 -0.0504252 0
-0.00237236 -0.0112923 0
-0.00147231 0.0289417 0
-0.00643677 0.0687318 0
-0.0147256 0.0947597 0
-0.0251238 0.111458 0
-0.0368159 0.122254 0
-0.0493009 0.129332 0
-0.0622866 0.13384 0
-0.0755993 0.136223 0
-0.0891212 0.136512 0
-0.102751 0.134534 0
-0.116384 0.130035 0
-0.129897 0.122751 0
-0.143145 0.112448 0
-0.155959 0.0989525 0
-0.168145 0.0821763 0
-0.179483 0.0621371 0
-0.189725 0.0389798 0
-0.198593 0.012994 0
-0.205765 -0.0153677 0
-0.210922 -0.0456328 0
-0.213686 -0.0772252 0
-0.213494 -0.109277 0
-0.209605 -0.140577 0
-0.201127 -0.169412 0
-0.187134 -0.193395 0
-0.166907 -0.209354 0
-0.140322 -0.213462 0
-0.108377 -0.201817 0
-0.0737512 -0.171835 0
-0.0410545 -0.124702 0
-0.0160239 -0.0682569 0
-0.00308193 -0.0167466 0
-0.00129524 0.0317092 0
-0.00576073 0.0753942 0
-0.0133641 0.103989 0
-0.023024 0.122286 0
-0.0339531 0.134047 0
-0.0456374 0.141708 0
-0.0577663 0.146578 0
-0.0701574 0.149188 0
-0.0826965 0.149607 0
-0.0952984 0.147671 0
-0.107883 0.143116 0
-0.120365 0.135664 0
-0.132644 0.125062 0
-0.144607 0.111116 0
-0.156127 0.0937182 0
-0.16706 0.0728659 0
-0.177245 0.0486785 0
-0.186493 0.0214114 0
-0.194572 -0.00853436 0
-0.201228 -0.0406527 0
-0.206132 -0.0745374 0
-0.208757 -0.109532 0
-0.208308 -0.144661 0
-0.203706 -0.178408 0
-0.193678 -0.20842 0
-0.176984 -0.23125 0
-0.152843 -0.242292 0
-0.121578 -0.236197 0
-0.0854168 -0.208241 0
-0.0491612 -0.157248 0
-0.0198271 -0.0900756 0
-0.00393422 -0.0237628 0
-0.00107996 0.0340844 0
-0.00492527 0.0813298 0
-0.0116523 0.112384 0
-0.0203424 0.132242 0
-0.0302475 0.144926 0
-0.0408406 0.153106 0
-0.0517897 0.158258 0
-0.0628998 0.16101 0
-0.074059 0.161484 0
-0.0851982 0.159535 0
-0.0962663 0.154905 0
-0.107216 0.147307 0
-0.118 0.136481 0
-0.128565 0.122225 0
-0.138858 0.104421 0
-0.148822 0.0830602 0
-0.158399 0.0582462 0
-0.167514 0.0302066 0
-0.176057 -0.000707316 0
-0.183863 -0.0340177 0
-0.190689 -0.0694429 0
-0.196096 -0.106593 0
-0.199304 -0.144841 0
-0.199117 -0.183017 0
-0.193957 -0.218999 0
-0.18206 -0.249261 0
-0.161909 -0.268572 0
-0.132958 -0.270134 0
-0.0966757 -0.246749 0
-0.0576874 -0.193984 0
-0.0241082 -0.116253 0
-0.00494473 -0.0326417 0
-0.000842612 0.036007 0
-0.00398845 0.0863984 0
-0.00969892 0.119753 0
-0.0172342 0.141098 0
-0.0258944 0.154634 0
-0.0351424 0.163239 0
-0.0446237 0.168556 0
-0.0541304 0.171329 0
-0.0635533 0.171747 0
-0.0728417 0.1697 0
-0.0819762 0.164943 0
-0.0909534 0.157197 0
-0.0997784 0.146201 0
-0.108463 0.131755 0
-0.11703 0.11375 0
-0.125511 0.0921778 0
-0.133952 0.0671471 0
-0.142403 0.0388713 0
-0.15089 0.00765745 0
-0.159368 -0.0260975 0
-0.167718 -0.0621877 0
-0.17564 -0.100519 0
-0.182444 -0.140902 0
-0.18691 -0.182676 0
-0.187247 -0.224164 0
-0.181216 -0.262023 0
-0.166533 -0.290644 0
-0.141631 -0.301914 0
-0.106904 -0.285978 0
-0.0663543 -0.234293 0
-0.0288371 -0.14704 0
-0.00613457 -0.043721 0
-0.000603233 0.0374528 0
-0.00302412 0.0905193 0
-0.00764517 0.125964 0
-0.0139029 0.148681 0
-0.0211509 0.16296 0
-0.0288473 0.171858 0
-0.0366193 0.17719 0
-0.0442494 0.179831 0
-0.0516348 0.180053 0
-0.0587478 0.177795 0
-0.0656056 0.17284 0
-0.0722523 0.164924 0
-0.0787496 0.153796 0
-0.0851747 0.13927 0
-0.0916217 0.121248 0
-0.0982061 0.0997447 0
-0.105069 0.0748843 0
-0.112372 0.0468883 0
-0.12028 0.0160343 0
-0.128891 -0.0173844 0
-0.138235 -0.0532075 0
-0.148183 -0.09163 0
-0.158216 -0.132955 0
-0.167208 -0.177165 0
-0.173288 -0.223259 0
-0.173859 -0.268387 0
-0.165912 -0.30691 0
-0.146769 -0.329693 0
-0.115458 -0.324236 0
-0.0748461 -0.277198 0
-0.0339824 -0.182516 0
-0.00753708 -0.0573926 0
-0.00038527 0.0384413 0
-0.00212101 0.0936874 0
-0.00566341 0.130959 0
-0.0105978 0.154878 0
-0.01633 0.169743 0
-0.0223222 0.178763 0
-0.0281936 0.183928 0
-0.0337265 0.186256 0
-0.0388332 0.18612 0
-0.043516 0.183524 0
-0.0478352 0.178289 0
-0.0518877 0.170174 0
-0.055795 0.15895 0
-0.0596991 0.144445 0
-0.0637634 0.126584 0
-0.0681755 0.105405 0
-0.0731527 0.0810634 0
-0.0789449 0.0538049 0
-0.0858266 0.0239068 0
-0.0940593 -0.0084129 0
-0.103821 -0.0430737 0
-0.115147 -0.0804897 0
-0.127755 -0.121454 0
-0.140744 -0.166684 0
-0.152344 -0.216061 0
-0.159791 -0.267567 0
-0.159489 -0.31598 0
-0.147648 -0.351608 0
-0.121698 -0.359582 0
-0.0828211 -0.321342 0
-0.0395211 -0.222536 0
-0.00920463 -0.0741343 0
-0.000215872 0.0390425 0
-0.0013837 0.0959898 0
-0.00395842 0.134774 0
-0.00761317 0.159652 0
-0.011795 0.174883 0
-0.0159833 0.183804 0
-0.0198087 0.188584 0
-0.0230713 0.190396 0
-0.0257121 0.189728 0
-0.0277746 0.186661 0
-0.0293703 0.181066 0
-0.0306541 0.172733 0
-0.0318101 0.161454 0
-0.0330463 0.147081 0
-0.0345932 0.12956 0
-0.0367039 0.108953 0
-0.0396568 0.085446 0
-0.0437612 0.059319 0
-0.0493607 0.030874 0
-0.056819 0.000310825 0
-0.0664408 -0.0324138 0
-0.0784213 -0.0678432 0
-0.0927329 -0.107181 0
-0.108813 -0.151888 0
-0.125199 -0.202871 0
-0.13923 -0.25928 0
-0.146974 -0.316824 0
-0.143663 -0.365915 0
-0.124986 -0.389901 0
-0.0899031 -0.364983 0
-0.045437 -0.266661 0
-0.0112118 -0.0945508 0
-0.000127856 0.0393862 0
-0.000938388 0.0976245 0
-0.00277424 0.13755 0
-0.0052917 0.163048 0
-0.00795617 0.178333 0
-0.0102844 0.186871 0
-0.0119506 0.191009 0
-0.0128016 0.192084 0
-0.0128286 0.190707 0
-0.0121304 0.187046 0
-0.0108793 0.181026 0
-0.00929402 0.172472 0
-0.00762316 0.161201 0
-0.00614103 0.147089 0
-0.00514475 0.130103 0
-0.00494908 0.110325 0
-0.00588433 0.0879621 0
-0.00829595 0.0633189 0
-0.0125475 0.0367251 0
-0.0190236 0.00839411 0
-0.028094 -0.0218048 0
-0.0400631 -0.0545025 0
-0.0551224 -0.0911507 0
-0.0731063 -0.133855 0
-0.0930649 -0.184559 0
-0.112764 -0.243862 0
-0.12832 -0.308941 0
-0.134287 -0.371142 0
-0.124644 -0.412994 0
-0.0956348 -0.405982 0
-0.0516932 -0.31407 0
-0.013649 -0.119412 0
-0.00016512 0.0396792 0
-0.000947496 0.0989244 0
-0.00241105 0.139549 0
-0.00403467 0.16519 0
-0.00526946 0.18009 0
-0.0057031 0.187875 0
-0.00510392 0.191072 0
-0.00340828 0.191177 0
-0.000687383 0.188921 0
0.00288584 0.184561 0
0.00706774 0.178078 0
0.0115697 0.169333 0
0.0160717 0.158167 0
0.0202313 0.144481 0
0.0236906 0.128255 0
0.0260817 0.109585 0
0.0270356 0.088683 0
0.0261923 0.065853 0
0.0232092 0.0414256 0
0.0177595 0.0156194 0
0.00949972 -0.0117 0
-0.00191777 -0.0412207 0
-0.016828 -0.0744629 0
-0.0354177 -0.113969 0
-0.0573743 -0.16253 0
-0.0812268 -0.222341 0
-0.103635 -0.292499 0
-0.118998 -0.366253 0
-0.119849 -0.426676 0
-0.0993766 -0.441781 0
-0.0581613 -0.363427 0
-0.0165994 -0.14966 0
-0.000394569 0.0402389 0
-0.00163975 0.100392 0
-0.00325654 0.141162 0
-0.00431838 0.166263 0
-0.00423302 0.180167 0
-0.00271965 0.186719 0
0.000286539 0.188623 0
0.00470233 0.187515 0
0.0103287 0.184236 0
0.0168877 0.179114 0
0.0240561 0.172175 0
0.0314771 0.163313 0
0.0387681 0.152394 0
0.0455296 0.139333 0
0.0513534 0.12412 0
0.0558315 0.106851 0
0.0585694 0.0877252 0
0.0592027 0.0670208 0
0.0574115 0.0450322 0
0.0529246 0.0219494 0
0.0454959 -0.00234149 0
0.034876 -0.0285419 0
0.0207831 -0.0581385 0
0.00280173 -0.0937225 0
-0.019447 -0.138571 0
-0.0454854 -0.196409 0
-0.0730508 -0.268457 0
-0.0971453 -0.350837 0
-0.109479 -0.428908 0
-0.100129 -0.46937 0
-0.0644869 -0.412696 0
-0.0200904 -0.18635 0
-0.000929679 0.0415631 0
-0.00336357 0.102747 0
-0.00583172 0.142892 0
-0.00670711 0.16647 0
-0.00536587 0.178533 0
-0.00176972 0.183243 0
0.00386762 0.183455 0
0.0112288 0.180905 0
0.0199415 0.176506 0
0.0296095 0.170616 0
0.0398258 0.163287 0
0.0501719 0.154433 0
0.0602176 0.143937 0
0.0695247 0.131721 0
0.0776552 0.117777 0
0.0841827 0.102189 0
0.088708 0.0851248 0
0.0908786 0.0668173 0
0.0904061 0.0474992 0
0.0870729 0.0273025 0
0.0807125 0.00609452 0
0.071142 -0.0167875 0
0.0581043 -0.0427622 0
0.0412201 -0.0742332 0
0.0200015 -0.114593 0
-0.00609112 -0.168256 0
-0.0365226 -0.238613 0
-0.0677937 -0.325316 0
-0.0918939 -0.417996 0
-0.0962634 -0.485262 0
-0.069861 -0.458849 0
-0.0240072 -0.230447 0
-0.00197271 0.0444655 0
-0.00666669 0.106973 0
-0.0108292 0.145297 0
-0.0118189 0.16593 0
-0.00911607 0.175029 0
-0.00312681 0.177161 0
0.00550234 0.17527 0
0.0161321 0.171099 0
0.0281818 0.16555 0
0.0411291 0.158958 0
0.0544926 0.151366 0
0.0678098 0.142691 0
0.0806252 0.132819 0
0.0924878 0.12167 0
0.102957 0.109229 0
0.111614 0.0955529 0
0.118079 0.0807709 0
0.122027 0.0650526 0
0.123207 0.0485558 0
0.121447 0.0313397 0
0.116629 0.013235 0
0.10863 -0.00635789 0
0.0972057 -0.0287302 0
0.0819556 -0.0561308 0
0.0622844 -0.0918055 0
0.0373661 -0.140032 0
0.00645847 -0.205497 0
-0.0295465 -0.291155 0
-0.0646982 -0.392905 0
-0.0851416 -0.485541 0
-0.072653 -0.497461 0
-0.0279436 -0.282398 0
-0.00387852 0.0503167 0
-0.0123699 0.114307 0
-0.0190417 0.148797 0
-0.020091 0.164469 0
-0.0155099 0.169206 0
-0.00647898 0.167964 0
0.00574954 0.16361 0
0.0201451 0.157735 0
0.0359063 0.151104 0
0.0524018 0.143961 0
0.0691029 0.136299 0
0.085534 0.12801 0
0.101246 0.118972 0
0.115805 0.109095 0
0.128798 0.0983415 0
0.139842 0.0867395 0
0.148594 0.0743671 0
0.154775 0.0613279 0
0.158171 0.0477036 0
0.158641 0.0334825 0
0.156092 0.0184585 0
0.150425 0.00208489 0
0.141404 -0.0167279 0
0.128577 -0.0400557 0
0.111207 -0.07084 0
0.088155 -0.113027 0
0.0579762 -0.171416 0
0.0196911 -0.250946 0
-0.0245151 -0.353756 0
-0.0626345 -0.466127 0
-0.0698222 -0.522176 0
-0.0309366 -0.341278 0
-0.00720828 0.0614035 0
-0.0214586 0.125962 0
-0.0308176 0.153173 0
-0.03087 0.161195 0
-0.0230107 0.16004 0
-0.00964424 0.154733 0
0.00723466 0.147733 0
0.0262021 0.140248 0
0.0462819 0.13275 0
0.066792 0.12531 0
0.0872085 0.117832 0
0.107087 0.110167 0
0.126021 0.102169 0
0.143631 0.0937288 0
0.159558 0.0847868 0
0.173475 0.0753334 0
0.185099 0.0653973 0
0.194194 0.0550215 0
0.200585 0.044223 0
0.204142 0.032936 0
0.204762 0.020934 0
0.202317 0.00772137 0
0.196591 -0.00761767 0
0.187084 -0.0268309 0
0.172842 -0.0524538 0
0.152378 -0.0878967 0
0.123596 -0.137585 0
0.0841574 -0.207054 0
0.0331614 -0.302446 0
-0.0225738 -0.423582 0
-0.0559559 -0.524151 0
-0.0309648 -0.40318 0
-0.0125644 0.0811762 0
-0.0340487 0.141924 0
-0.0438095 0.156331 0
-0.0393607 0.15364 0
-0.0250267 0.145401 0
-0.00483332 0.135813 0
0.0185295 0.126412 0
0.0434062 0.117725 0
0.0688123 0.109787 0
0.0941311 0.102444 0
0.118924 0.095489 0
0.142835 0.088721 0
0.165547 0.0819684 0
0.186764 0.0751027 0
0.206209 0.0680412 0
0.223628 0.0607422 0
0.2388 0.0531936 0
0.251538 0.0453913 0
0.261693 0.0373086 0
0.269134 0.0288519 0
0.273731 0.019801 0
0.275305 0.0097252 0
0.273557 -0.00214731 0
0.267899 -0.0171359 0
0.257217 -0.0372257 0
0.239661 -0.0651048 0
0.212525 -0.104459 0
0.172343 -0.160559 0
0.11579 -0.241392 0
0.0438039 -0.356915 0
-0.0216489 -0.491983 0
-0.0239216 -0.458066 0