# vtk DataFile Version 2.0
Lid-driven cavity
ASCII
DATASET STRUCTURED_POINTS
DIMENSIONS 32 32 1
ORIGIN 0.015625 0.015625 0
SPACING 0.03125 0.03125 1
POINT_DATA 1024
SCALARS pressure double 1
LOOKUP_TABLE default
38.5952
38.4261
38.1304
37.8034
37.5022
37.2555
37.0776
36.9784
36.9688
37.063
37.2763
37.6238
38.1158
38.7553
39.5343
40.4308
41.4083
42.4167
43.3907
44.2561
44.9396
45.379
45.5349
45.3995
45.0006
44.3996
43.6826
42.9482
42.2954
41.8101
41.5549
41.5403
38.7642
38.5879
38.3415
38.0798
37.8386
37.6384
37.4917
37.4088
37.401
37.4819
37.6662
37.9678
38.3969
38.9571
39.6423
40.434
41.2999
42.1964
43.0644
43.8365
44.4458
44.8363
44.9734
44.8518
44.4996
43.9748
43.3561
42.7283
42.1735
41.7591
41.5339
41.5255
39.0708
38.8193
38.5639
38.3255
38.1164
37.9433
37.8117
37.7287
37.7047
37.7535
37.8906
38.1317
38.4896
38.9716
39.5759
40.2886
41.0822
41.9165
42.7346
43.4699
44.0553
44.4335
44.5681
44.4529
44.1155
43.6137
43.0254
42.4333
41.9105
41.516
41.2926
41.2738
39.4078
39.0495
38.7527
38.5086
38.3068
38.1386
38.0005
37.895
37.8314
37.8242
37.8914
38.0527
38.3259
38.7242
39.2523
39.9026
40.6526
41.4628
42.2766
43.0249
43.6354
44.0437
44.2064
44.1111
43.7822
43.2777
42.6779
42.0687
41.5252
41.1034
40.8439
40.7783
39.676
39.1996
38.8457
38.5768
38.3603
38.1728
38.0019
37.846
37.7133
37.6201
37.5885
37.6436
37.8106
38.1107
38.5568
39.1493
39.8722
40.6862
41.5348
42.3448
43.0353
43.5299
43.7717
43.7356
43.4369
42.9305
42.2999
41.6384
41.0299
40.5366
40.2015
40.056
39.7805
39.1855
38.7682
38.461
38.2099
37.9776
37.744
37.5043
37.2667
37.0503
36.8824
36.7955
36.8236
36.9978
37.3415
37.8651
38.5621
39.3959
40.3125
41.2344
42.0701
42.7262
43.1247
43.2186
43.0047
42.5276
41.8707
41.1377
40.4285
39.822
39.372
39.1169
39.6273
38.9195
38.4371
38.0811
37.7758
37.4717
37.1421
36.78
36.3947
36.009
35.6566
35.3785
35.2193
35.2222
35.4235
35.8465
36.4973
37.3508
38.3592
39.4433
40.5
41.4146
42.0792
42.4127
42.3796
42.0013
41.3534
40.5496
39.7137
38.9538
38.3486
37.9544
39.1237
38.3126
37.7656
37.3506
36.971
36.5657
36.1027
35.5739
34.99
34.3783
33.7794
33.2441
32.8293
32.5926
32.5864
32.851
33.4087
34.2571
35.3645
36.6548
38.0148
39.3051
40.3791
41.1071
41.4024
41.2434
40.683
39.839
38.8656
37.9163
37.1141
36.5444
38.1807
37.2789
36.6681
36.1832
35.7072
35.1685
34.5305
33.7839
32.9415
32.0347
31.1115
30.2333
29.4709
28.8993
28.5909
28.6078
28.9935
29.7787
30.9657
32.4893
34.231
36.0268
37.6841
39.009
39.8406
40.087
39.7525
38.9441
37.8482
36.6811
35.6354
34.8474
36.7182
35.7407
35.0667
34.4993
33.9025
33.1949
32.3356
31.3138
30.1434
28.8598
27.5181
26.1907
24.9642
23.934
23.1971
22.8434
22.944
23.5662
24.7747
26.5275
28.7103
31.1387
33.5713
35.7368
37.3752
38.2899
38.3986
37.7676
36.6058
35.2092
33.8725
32.8129
34.6713
33.6356
32.8983
32.2341
31.4899
30.5753
29.4444
28.0844
26.5091
24.7565
22.888
20.9875
19.1585
17.5199
16.1988
15.3196
14.9912
15.3055
16.4289
18.3607
21.0048
24.1673
27.5622
30.8344
33.603
35.5279
36.3905
36.1668
35.0596
33.4518
31.7793
30.3844
31.997
30.9222
30.1215
29.3452
28.4261
27.2651
25.8112
24.048
21.9874
19.6683
17.1573
14.549
11.9652
9.55086
7.46739
5.88065
4.94527
4.7858
5.66134
7.66339
10.73
14.6748
19.1814
23.8151
28.0623
31.4044
33.4275
33.9475
33.1036
31.352
29.3098
27.5059
28.6796
27.5865
26.7225
25.8199
24.6997
23.2554
21.4301
19.2021
16.5795
13.6001
10.3337
6.8848
3.39335
0.0323271
-2.99911
-5.48827
-7.2279
-8.04151
-7.62147
-5.71806
-2.34111
2.35377
8.04449
14.2372
20.2904
25.4849
29.154
30.8655
30.6041
28.8491
26.4266
24.1325
24.735
23.6452
22.7198
21.6797
20.3375
18.5802
16.3443
13.6015
10.3537
6.6353
2.51747
-1.88708
-6.42102
-10.8832
-15.0346
-18.6121
-21.3491
-23.006
-23.2648
-21.6783
-18.1795
-12.8663
-6.03209
1.80744
9.91122
17.3619
23.1979
26.6444
27.4057
25.8848
23.1115
20.243
20.2116
19.147
18.1654
16.9831
15.4077
13.3208
10.6519
7.36464
3.45305
-1.05418
-6.08696
-11.5264
-17.1994
-22.8779
-28.2837
-33.1017
-37.0026
-39.6736
-40.8127
-39.7889
-36.4211
-30.7244
-22.9241
-13.5059
-3.2557
6.74745
15.2367
21.013
23.3505
22.4168
19.3824
15.8574
15.1883
14.1702
13.1424
11.823
10.0181
7.60477
4.50528
0.673973
-3.90458
-9.20941
-15.1736
-21.6745
-28.5258
-35.4751
-42.2074
-48.359
-53.5398
-57.3668
-59.5052
-59.2856
-56.3371
-50.5756
-42.1229
-31.3755
-19.0863
-6.42044
5.08699
13.7673
18.3131
18.4407
15.3157
11.0616
9.76814
8.81629
7.75833
6.32069
4.31016
1.59966
-1.8961
-6.23306
-11.4376
-17.4981
-24.3529
-31.8774
-39.8752
-48.0728
-56.1233
-63.6194
-70.1172
-75.1706
-78.3767
-79.1325
-76.8773
-71.4098
-62.7232
-51.0677
-37.0729
-21.8793
-7.19678
4.85172
12.2554
14.0261
11.0784
6.03967
4.06972
3.2005
2.13603
0.615761
-1.55171
-4.49831
-8.31836
-13.0795
-18.8203
-25.5399
-33.1831
-41.6258
-50.6636
-60.0057
-69.2786
-78.0388
-85.7975
-92.0554
-96.3452
-98.1436
-96.7869
-91.9534
-83.4944
-71.4728
-56.3077
-38.9829
-21.2362
-5.55251
5.29839
9.36776
6.97285
1.11985
-1.78499
-2.56027
-3.59952
-5.14682
-7.3932
-10.4788
-14.5102
-19.569
-25.7081
-32.9381
-41.2115
-50.4057
-60.3102
-70.6206
-80.9418
-90.802
-99.6784
-107.032
-112.349
-115.153
-114.788
-110.848
-103.04
-91.2264
-75.5504
-56.7084
-36.2829
-16.9491
-2.19591
4.85511
3.49867
-3.1599
-7.68381
-8.36123
-9.33478
-10.8305
-13.0444
-16.1325
-20.2205
-25.4083
-31.7651
-39.3144
-48.0163
-57.7499
-68.3002
-79.3515
-90.4915
-101.227
-111.012
-119.284
-125.503
-129.187
-129.789
-126.868
-120.018
-108.909
-93.3835
-73.7468
-51.236
-28.4822
-9.54442
1.16086
1.44318
-5.95239
-13.5384
-14.1241
-14.9816
-16.3199
-18.3522
-21.2651
-25.2146
-30.3263
-36.6889
-44.3391
-53.2436
-63.2824
-74.2356
-85.7782
-97.4845
-108.846
-119.299
-128.27
-135.208
-139.623
-141.066
-139.13
-133.367
-123.282
-108.429
-88.6701
-64.7338
-38.944
-15.6805
-0.655003
2.00796
-5.95132
-19.299
-19.8119
-20.4903
-21.5317
-23.1895
-25.706
-29.2858
-34.0898
-40.23
-47.7552
-56.6356
-66.7484
-77.8685
-89.6621
-101.693
-113.44
-124.332
-133.786
-141.249
-146.235
-148.339
-147.228
-142.479
-133.488
-119.568
-100.138
-75.3086
-46.8438
-19.1265
0.965241
6.9793
-1.17319
-24.9716
-25.4461
-25.8611
-26.4205
-27.4588
-29.3133
-32.2624
-36.5137
-42.2057
-49.3947
-58.0522
-68.0506
-79.1523
-91.01
-103.175
-115.116
-126.255
-136.003
-143.813
-149.204
-151.78
-151.252
-147.257
-139.168
-126.104
-107.086
-81.564
-50.5285
-18.0143
8.17556
18.9383
11.3396
-30.6434
-31.1289
-31.1569
-30.9817
-31.09
-31.9726
-34.0118
-37.4803
-42.5362
-49.2372
-57.5424
-67.3061
-78.2724
-90.0762
-102.254
-114.263
-125.517
-135.429
-143.447
-149.097
-151.985
-151.782
-148.108
-140.432
-127.801
-108.825
-82.3158
-48.3189
-10.1559
23.7854
41.4881
35.8928
-36.5303
-37.0823
-36.5187
-35.2496
-34.0322
-33.5911
-34.446
-36.923
-41.1943
-47.3035
-55.1825
-64.6552
-75.4375
-87.1402
-99.281
-111.306
-122.622
-132.634
-140.79
-146.604
-149.674
-149.632
-145.97
-138.038
-124.838
-105.001
-76.6349
-38.607
6.85293
51.2482
79.4552
78.5747
-43.0824
-43.7231
-42.1937
-39.294
-36.2394
-34.0765
-33.4825
-34.8068
-38.2099
-43.6953
-51.147
-60.3429
-70.9604
-82.5803
-94.6994
-106.75
-118.129
-128.235
-136.501
-142.42
-145.554
-145.505
-141.6
-132.95
-118.328
-95.9659
-63.7848
-19.8632
35.5361
94.5463
138.996
147.732
-51.2314
-51.8187
-48.5842
-43.2163
-37.6606
-33.3465
-31.0789
-31.1657
-33.7019
-38.6129
-45.7085
-54.7053
-65.2327
-76.8372
-88.9924
-101.116
-112.595
-122.814
-131.185
-137.166
-140.258
-139.98
-135.594
-125.758
-108.858
-82.5848
-44.0567
9.43413
78.4784
157.932
227.504
254.477
-62.9956
-62.7968
-56.3107
-47.1165
-38.2017
-31.3142
-27.2302
-26.0993
-27.8676
-32.3331
-39.2054
-48.1264
-58.6717
-70.3519
-82.6172
-94.8707
-106.488
-116.839
-125.309
-131.303
-134.238
-133.503
-128.337
-116.806
-96.7324
-65.0795
-17.8996
48.9761
138.009
245.424
353.09
413.236
-82.9961
-79.2465
-66.1308
-50.8826
-37.5579
-27.7685
-21.8767
-19.6881
-20.8964
-25.1206
-31.9498
-40.9444
-51.6267
-63.4731
-75.9135
-88.3386
-100.114
-110.593
-119.13
-125.07
-127.732
-126.342
-119.941
-106.205
-82.0711
-43.6252
14.3965
98.1432
213.141
360.066
523.07
642.277
-122.243
-104.935
-77.8586
-53.2358
-34.5886
-21.9054
-14.5096
-11.6698
-12.7015
-17.0052
-24.0427
-33.2996
-44.2542
-56.3585
-69.0297
-81.6526
-93.5862
-104.171
-112.729
-118.544
-120.82
-118.594
-110.604
-94.1308
-65.2702
-19.1546
50.9503
153.728
299.475
497.915
745.064
963.33
-206.087
-139.25
-85.186
-48.4388
-24.9299
-10.7296
-3.24963
-0.878676
-2.56114
-7.54015
-15.2096
-25.0269
-36.4612
-48.9648
-61.9611
-74.842
-86.9702
-97.6802
-106.268
-111.959
-113.849
-110.778
-101.145
-81.7833
-48.405
4.68372
85.5401
205.574
381.663
640.968
1023.45
1483.87
-413.918
-149.864
-56.8476
-18.0907
0.969467
10.6633
14.5676
14.2195
10.4627
3.87917
-5.04879
-15.8647
-28.0996
-41.2523
-54.7818
-68.1074
-80.6104
-91.6324
-100.461
-106.292
-108.152
-104.751
-94.1931
-73.2984
-37.7071
18.6291
104.385
232.636
425.669
730.891
1276.35
2396.84
VECTORS velocity double
8.32606e-05 -8.32606e-05 0
0.000170018 -3.49728e-06 0
3.60815e-05 0.000137434 0
-0.00036791 0.000266558 0
-0.00100037 0.000365905 0
-0.00180486 0.000438583 0
-0.00273557 0.000492129 0
-0.00375949 0.000531789 0
-0.00485015 0.000558865 0
-0.00598031 0.000571295 0
-0.00711655 0.000564951 0
-0.00821646 0.000534954 0
-0.00922821 0.000476801 0
-0.0100923 0.000387319 0
-0.0107451 0.000265493 0
-0.0111238 0.000113192 0
-0.0111727 -6.43531e-05 0
-0.0108498 -0.000258558 0
-0.0101359 -0.000455333 0
-0.00904371 -0.000636823 0
-0.00762362 -0.000783266 0
-0.00596473 -0.000875624 0
-0.00419028 -0.000898835 0
-0.00244624 -0.000845204 0
-0.000883914 -0.000717119 0
0.000361448 -0.000528242 0
0.00119247 -0.000302779 0
0.00156653 -7.12803e-05 0
0.00150675 0.00013106 0
0.00111039 0.0002653 0
0.000560716 0.000284371 0
0.000138172 0.000138172 0
-4.33134e-08 -0.000166478 0
-0.000248542 0.000241461 0
-0.00105602 0.00083389 0
-0.00245865 0.00137672 0
-0.00437542 0.00180498 0
-0.0066961 0.00212468 0
-0.00931839 0.00235904 0
-0.012154 0.00252444 0
-0.0151208 0.00262367 0
-0.0181318 0.00264766 0
-0.0210873 0.00258031 0
-0.0238715 0.00240364 0
-0.0263538 0.00210227 0
-0.028395 0.00166712 0
-0.029855 0.0010985 0
-0.0306047 0.000408537 0
-0.0305382 -0.000377313 0
-0.0295876 -0.00121916 0
-0.0277368 -0.0020594 0
-0.0250342 -0.00282748 0
-0.0216003 -0.00344663 0
-0.0176283 -0.00384315 0
-0.013376 -0.00395802 0
-0.00914688 -0.00375922 0
-0.00525979 -0.00325252 0
-0.0020104 -0.00248759 0
0.000372344 -0.0015572 0
0.00176897 -0.000587546 0
0.0022008 0.000275278 0
0.00184597 0.000872269 0
0.00104299 0.00103005 0
0.000290845 0.000567189 0
-0.000181238 1.48031e-05 0
-0.00100615 0.00113359 0
-0.00274572 0.0024888 0
-0.00532525 0.00370397 0
-0.00860082 0.00467007 0
-0.0124175 0.00539696 0
-0.0166323 0.00592381 0
-0.0211135 0.00627653 0
-0.0257307 0.00645563 0
-0.030344 0.00643996 0
-0.0347972 0.00619663 0
-0.0389173 0.00569157 0
-0.0425192 0.00489868 0
-0.0454144 0.00380709 0
-0.0474227 0.00242684 0
-0.0483858 0.000792966 0
-0.048182 -0.00103205 0
-0.046741 -0.0029561 0
-0.0440573 -0.0048569 0
-0.0402016 -0.00658822 0
-0.0353293 -0.00799211 0
-0.0296829 -0.00891608 0
-0.0235854 -0.00923482 0
-0.0174227 -0.00887433 0
-0.011612 -0.00783515 0
-0.00655754 -0.00620886 0
-0.00259436 -0.00418186 0
6.91985e-05 -0.00202307 0
0.00140373 -5.55508e-05 0
0.0015906 0.00137106 0
0.00102376 0.00190107 0
0.000307022 0.00116506 0
-0.000400645 0.000596686 0
-0.00191457 0.00289054 0
-0.00473113 0.00528797 0
-0.00860236 0.00735557 0
-0.0132917 0.00898343 0
-0.0185935 0.010202 0
-0.024329 0.011069 0
-0.0303326 0.0116162 0
-0.0364365 0.011837 0
-0.0424597 0.011695 0
-0.0482047 0.0111398 0
-0.0534598 0.0101236 0
-0.0580063 0.00861505 0
-0.0616293 0.00660896 0
-0.0641302 0.00413417 0
-0.0653397 0.0012583 0
-0.0651315 -0.00190951 0
-0.0634328 -0.00521829 0
-0.0602354 -0.00847583 0
-0.055607 -0.0114533 0
-0.0497042 -0.0139021 0
-0.0427788 -0.0155779 0
-0.0351774 -0.0162719 0
-0.0273297 -0.0158477 0
-0.0197216 -0.0142805 0
-0.0128498 -0.0116899 0
-0.00715798 -0.0083558 0
-0.00296312 -0.00470756 0
-0.00038483 -0.00128388 0
0.000704377 0.00132331 0
0.000698308 0.00252172 0
0.000243686 0.00171576 0
-0.000634843 0.00163217 0
-0.00288443 0.00561857 0
-0.0068399 0.00933197 0
-0.0120483 0.0123912 0
-0.0181622 0.0147511 0
-0.0249192 0.0164931 0
-0.0321081 0.0177024 0
-0.0395375 0.0184158 0
-0.0470132 0.018617 0
-0.0543278 0.0182528 0
-0.0612582 0.0172573 0
-0.0675705 0.0155735 0
-0.0730288 0.01317 0
-0.0774057 0.0100539 0
-0.0804935 0.00627795 0
-0.0821155 0.00194606 0
-0.082136 -0.00278498 0
-0.0804674 -0.00771014 0
-0.077077 -0.0125718 0
-0.0720039 -0.0170588 0
-0.0653762 -0.0208271 0
-0.0574255 -0.023529 0
-0.0484948 -0.0248529 0
-0.0390361 -0.0245731 0
-0.0295913 -0.0226079 0
-0.0207508 -0.0190749 0
-0.0130844 -0.014329 0
-0.00705061 -0.00896296 0
-0.00290022 -0.00375715 0
-0.000601226 0.000408385 0
0.000195816 0.00264567 0
0.000141399 0.00210085 0
-0.000871807 0.00313882 0
-0.00386264 0.00935234 0
-0.00895663 0.0146477 0
-0.0154861 0.0188134 0
-0.0229877 0.0219444 0
-0.0311425 0.0242115 0
-0.039711 0.0257414 0
-0.048484 0.0265791 0
-0.0572528 0.0266982 0
-0.0657963 0.0260297 0
-0.0738799 0.0244945 0
-0.0812609 0.0220296 0
-0.0876958 0.0186072 0
-0.0929505 0.0142483 0
-0.0968086 0.00902944 0
-0.0990799 0.00308781 0
-0.0996079 -0.00337818 0
-0.0982737 -0.0101198 0
-0.0950019 -0.0168242 0
-0.0897803 -0.0231011 0
-0.0826855 -0.0285073 0
-0.0739055 -0.0325796 0
-0.0637571 -0.0348813 0
-0.0526961 -0.0350644 0
-0.0413099 -0.0329476 0
-0.030285 -0.0286006 0
-0.0203387 -0.022416 0
-0.0121116 -0.0151367 0
-0.00603842 -0.00780701 0
-0.00223185 -0.00164733 0
-0.000423877 0.00209637 0
1.92209e-05 0.00226147 0
-0.00110175 0.00511238 0
-0.00480644 0.0140743 0
-0.0109879 0.0212011 0
-0.0187696 0.0265712 0
-0.0275784 0.030497 0
-0.0370438 0.0332792 0
-0.0469046 0.0351031 0
-0.0569422 0.0360279 0
-0.0669431 0.0360191 0
-0.0766843 0.0349935 0
-0.0859302 0.0328603 0
-0.0944372 0.0295516 0
-0.10196 0.0250425 0
-0.108256 0.0193645 0
-0.113097 0.0126125 0
-0.11627 0.00494861 0
-0.117584 -0.00339692 0
-0.116878 -0.0121414 0
-0.114021 -0.020931 0
-0.108936 -0.0293015 0
-0.101629 -0.0367087 0
-0.0922242 -0.042563 0
-0.08099 -0.0462805 0
-0.0683618 -0.0473544 0
-0.0549534 -0.0454522 0
-0.0415407 -0.0405336 0
-0.0290017 -0.0329684 0
-0.0182002 -0.0236129 0
-0.00981821 -0.013786 0
-0.00418147 -0.00511161 0
-0.00115031 0.000721519 0
-0.000118888 0.0021618 0
-0.00131446 0.0075286 0
-0.0056745 0.0197228 0
-0.0128475 0.028907 0
-0.0217667 0.0355664 0
-0.0317617 0.0403055 0
-0.0424197 0.0435941 0
-0.0534648 0.0456941 0
-0.0646764 0.0466861 0
-0.075845 0.0465306 0
-0.0867538 0.0451319 0
-0.0971733 0.0423874 0
-0.106864 0.0382221 0
-0.115579 0.0326092 0
-0.123068 0.0255837 0
-0.129082 0.0172489 0
-0.133379 0.00778121 0
-0.135726 -0.00256853 0
-0.135913 -0.0134886 0
-0.133752 -0.0246016 0
-0.12909 -0.0353781 0
-0.121855 -0.0451745 0
-0.112087 -0.0532699 0
-0.099979 -0.0589154 0
-0.0859164 -0.0614104 0
-0.070506 -0.0602151 0
-0.0545876 -0.0551018 0
-0.0391964 -0.0463303 0
-0.0254498 -0.0347992 0
-0.0143458 -0.0220857 0
-0.00651217 -0.0102823 0
-0.00200694 -0.00164419 0
-0.000276879 0.00176603 0
-0.00149898 0.010342 0
-0.00642509 0.0261955 0
-0.0144522 0.0376344 0
-0.0243524 0.0456584 0
-0.0353746 0.0512308 0
-0.0470734 0.0550257 0
-0.059165 0.0573991 0
-0.0714329 0.0584606 0
-0.0836777 0.0581695 0
-0.0956942 0.0564181 0
-0.107264 0.0530902 0
-0.118153 0.048099 0
-0.128114 0.0414084 0
-0.136887 0.0330468 0
-0.144202 0.023115 0
-0.149783 0.0117921 0
-0.153355 -0.00066037 0
-0.154661 -0.0139039 0
-0.153455 -0.0275536 0
-0.149514 -0.0410283 0
-0.142678 -0.0535955 0
-0.132889 -0.0644059 0
-0.120238 -0.0725376 0
-0.10502 -0.0770693 0
-0.0877873 -0.0771992 0
-0.069398 -0.0724253 0
-0.0510139 -0.0627821 0
-0.0340131 -0.0490948 0
-0.0197722 -0.033135 0
-0.00932756 -0.0175113 0
-0.0030418 -0.00520619 0
-0.000466491 0.00102266 0
-0.00164424 0.0134853 0
-0.00701741 0.0333516 0
-0.0157231 0.0472111 0
-0.0264088 0.0566674 0
-0.0382619 0.0630971 0
-0.0508129 0.0674092 0
-0.0637747 0.070069 0
-0.0769393 0.0712232 0
-0.0901206 0.0708331 0
-0.103129 0.068779 0
-0.115758 0.0649282 0
-0.127784 0.059176 0
-0.13896 0.0514686 0
-0.149017 0.0418176 0
-0.157668 0.03031 0
-0.164609 0.0171179 0
-0.169527 0.00250491 0
-0.172122 -0.013169 0
-0.172101 -0.0295157 0
-0.169181 -0.0459269 0
-0.163113 -0.0616001 0
-0.153731 -0.075573 0
-0.140995 -0.0867565 0
-0.125069 -0.0939956 0
-0.106392 -0.0961821 0
-0.0857727 -0.092451 0
-0.0644378 -0.0824755 0
-0.0439992 -0.0668408 0
-0.0262502 -0.047379 0
-0.0127514 -0.0272108 0
-0.00431708 -0.0102268 0
-0.000702668 -0.000146495 0
-0.00174001 0.0168695 0
-0.00741429 0.0410148 0
-0.0165886 0.057428 0
-0.0278295 0.0683771 0
-0.0402813 0.0756922 0
-0.0534569 0.0805407 0
-0.0670685 0.083511 0
-0.0809174 0.0847946 0
-0.0948328 0.0843583 0
-0.108641 0.0820702 0
-0.122153 0.0777782 0
-0.135155 0.0713538 0
-0.147406 0.0627179 0
-0.158637 0.0518566 0
-0.168549 0.0388345 0
-0.176823 0.0238072 0
-0.183121 0.00703277 0
-0.187105 -0.0111185 0
-0.188451 -0.0302413 0
-0.186835 -0.0497379 0
-0.181927 -0.0687643 0
-0.173445 -0.0862739 0
-0.161201 -0.101034 0
-0.145182 -0.111663 0
-0.125652 -0.116721 0
-0.103284 -0.1149 0
-0.0792791 -0.105367 0
-0.055412 -0.0882552 0
-0.0338901 -0.0652354 0
-0.016902 -0.0398412 0
-0.00589922 -0.0170335 0
-0.0010021 -0.00185126 0
-0.00177795 0.0203875 0
-0.00758565 0.0489788 0
-0.0169909 0.0680435 0
-0.0285271 0.0805387 0
-0.0413129 0.0887683 0
-0.0548479 0.0941752 0
-0.0688431 0.0974832 0
-0.0831081 0.0989363 0
-0.0974867 0.0985105 0
-0.111823 0.0960629 0
-0.125945 0.0914194 0
-0.139655 0.0844246 0
-0.152725 0.0749686 0
-0.164895 0.0630065 0
-0.175872 0.048574 0
-0.185334 0.0318035 0
-0.192938 0.0129389 0
-0.198327 -0.00765234 0
-0.201161 -0.0295272 0
-0.201091 -0.0521386 0
-0.197724 -0.0746381 0
-0.190669 -0.0959377 0
-0.179578 -0.114705 0
-0.164226 -0.129363 0
-0.144638 -0.138139 0
-0.121254 -0.139233 0
-0.0951336 -0.13116 0
-0.0681009 -0.113362 0
-0.0427185 -0.0870331 0
-0.0218696 -0.0558805 0
-0.00785083 -0.0260158 0
-0.00138176 -0.00423512 0
-0.00175282 0.0239183 0
-0.00751212 0.057015 0
-0.0168915 0.0787919 0
-0.0284413 0.0928763 0
-0.041271 0.102046 0
-0.0548685 0.10803 0
-0.0689405 0.111696 0
-0.0833021 0.11335 0
-0.0978096 0.112983 0
-0.112325 0.110442 0
-0.126695 0.105533 0
-0.140745 0.0980711 0
-0.154268 0.0879153 0
-0.167026 0.0749874 0
-0.178748 0.0592915 0
-0.189132 0.0409325 0
-0.197851 0.0201335 0
-0.204559 -0.00275056 0
-0.208914 -0.0272397 0
-0.210557 -0.052854 0
-0.209062 -0.0787847 0
-0.203948 -0.10396 0
-0.194707 -0.127014 0
-0.180881 -0.146232 0
-0.162195 -0.159546 0
-0.138765 -0.16464 0
-0.111371 -0.159267 0
-0.0817335 -0.141924 0
-0.0526484 -0.112938 0
-0.0276969 -0.075776 0
-0.0102246 -0.0376114 0
-0.0018582 -0.00747509 0
-0.00166341 0.0273345 0
-0.00718831 0.064883 0
-0.0162777 0.0893926 0
-0.0275487 0.105096 0
-0.040117 0.115224 0
-0.0534586 0.121791 0
-0.0672715 0.12582 0
-0.0813715 0.127688 0
-0.0956249 0.127406 0
-0.109911 0.12482 0
-0.124099 0.119714 0
-0.13804 0.111881 0
-0.15156 0.101148 0
-0.164456 0.0874082 0
-0.176497 0.0706342 0
-0.187427 0.0509034 0
-0.196958 0.0284135 0
-0.204782 0.00350067 0
-0.210571 -0.0233466 0
-0.213981 -0.0516942 0
-0.214594 -0.0808268 0
-0.211868 -0.109759 0
-0.205151 -0.137172 0
-0.193744 -0.161306 0
-0.177031 -0.179872 0
-0.154715 -0.190061 0
-0.127158 -0.188796 0
-0.0957928 -0.173398 0
-0.0634624 -0.14288 0
-0.0343649 -0.0998827 0
-0.0130579 -0.052284 0
-0.00244676 -0.0117801 0
-0.00151323 0.0305111 0
-0.00662543 0.0723435 0
-0.0151672 0.0995633 0
-0.0258698 0.116899 0
-0.0378695 0.127989 0
-0.0506296 0.135127 0
-0.0638344 0.139501 0
-0.077295 0.141567 0
-0.0908848 0.14137 0
-0.104499 0.138756 0
-0.118032 0.133499 0
-0.131368 0.125372 0
-0.144371 0.11418 0
-0.156888 0.0997897 0
-0.168745 0.0821518 0
-0.179749 0.0613186 0
-0.189681 0.0374618 0
-0.198294 0.0108889 0
-0.205299 -0.0179399 0
-0.210402 -0.0485885 0
-0.213227 -0.0804945 0
-0.213213 -0.112832 0
-0.209601 -0.144428 0
-0.201463 -0.173595 0
-0.187823 -0.197936 0
-0.167903 -0.214234 0
-0.141515 -0.218569 0
-0.109601 -0.206904 0
-0.0748117 -0.176493 0
-0.0417843 -0.128395 0
-0.0163688 -0.0704944 0
-0.00316135 -0.0173882 0
-0.00131086 0.0333352 0
-0.00585254 0.0791733 0
-0.0136113 0.109034 0
-0.0234739 0.127994 0
-0.034611 0.140032 0
-0.0464736 0.147707 0
-0.0587266 0.152379 0
-0.0711723 0.154596 0
-0.0836881 0.154447 0
-0.0961853 0.15179 0
-0.108586 0.146398 0
-0.120808 0.138031 0
-0.132765 0.126481 0
-0.144358 0.1116 0
-0.155483 0.0933242 0
-0.166024 0.071691 0
-0.175853 0.0468501 0
-0.184814 0.0190742 0
-0.192702 -0.0112314 0
-0.199291 -0.043605 0
-0.204276 -0.0776675 0
-0.207128 -0.11282 0
-0.207034 -0.148146 0
-0.202882 -0.182167 0
-0.193349 -0.212535 0
-0.177136 -0.235768 0
-0.15339 -0.247169 0
-0.122363 -0.241245 0
-0.0862323 -0.213073 0
-0.0497951 -0.16128 0
-0.020155 -0.0926652 0
-0.00401514 -0.0245647 0
-0.00106975 0.0357158 0
-0.00491663 0.0851812 0
-0.0116958 0.117564 0
-0.0204809 0.138111 0
-0.0304908 0.151061 0
-0.0411649 0.159215 0
-0.0521463 0.164106 0
-0.063225 0.166393 0
-0.0742809 0.166221 0
-0.0852421 0.163474 0
-0.0960594 0.157932 0
-0.106692 0.149353 0
-0.117101 0.137525 0
-0.127251 0.122299 0
-0.137109 0.103608 0
-0.146646 0.0814857 0
-0.155834 0.0560718 0
-0.164632 0.0276111 0
-0.172963 -0.00354905 0
-0.180695 -0.0369656 0
-0.187605 -0.0724112 0
-0.19326 -0.10957 0
-0.196864 -0.147887 0
-0.197193 -0.186249 0
-0.192625 -0.222552 0
-0.181341 -0.253248 0
-0.161751 -0.273025 0
-0.133229 -0.274937 0
-0.0971739 -0.251567 0
-0.0581744 -0.198222 0
-0.0243966 -0.119141 0
-0.0050228 -0.0336026 0
-0.0008077 0.0375933 0
-0.00388151 0.0902245 0
-0.00953965 0.124958 0
-0.0170604 0.147023 0
-0.0257218 0.160821 0
-0.0349563 0.169364 0
-0.044385 0.174367 0
-0.053785 0.176611 0
-0.0630396 0.176314 0
-0.0720963 0.173399 0
-0.080938 0.167666 0
-0.0895671 0.15888 0
-0.0979985 0.146838 0
-0.106258 0.131395 0
-0.114386 0.112497 0
-0.122438 0.0901859 0
-0.130488 0.0646091 0
-0.138616 0.0360001 0
-0.146884 0.00466049 0
-0.15528 -0.0290474 0
-0.163704 -0.0649938 0
-0.171864 -0.103173 0
-0.179062 -0.143482 0
-0.184059 -0.185329 0
-0.185027 -0.227071 0
-0.179683 -0.265358 0
-0.165674 -0.294514 0
-0.141356 -0.306287 0
-0.107037 -0.290592 0
-0.0666514 -0.238582 0
-0.029064 -0.150146 0
-0.006205 -0.0448304 0
-0.000546116 0.0389471 0
-0.00282601 0.0942244 0
-0.00729324 0.131084 0
-0.0134286 0.154554 0
-0.0205767 0.1691 0
-0.0281701 0.177913 0
-0.0358128 0.182889 0
-0.0432729 0.184949 0
-0.0504415 0.184399 0
-0.0572898 0.181219 0
-0.0638381 0.175236 0
-0.0701363 0.166237 0
-0.0762552 0.154031 0
-0.0822833 0.13849 0
-0.0883295 0.119576 0
-0.0945272 0.0973564 0
-0.101038 0.0719998 0
-0.108051 0.0437505 0
-0.115756 0.0128827 0
-0.124285 -0.0203454 0
-0.133685 -0.0558702 0
-0.143837 -0.093985 0
-0.154221 -0.135089 0
-0.163701 -0.179245 0
-0.170386 -0.225501 0
-0.171649 -0.271011 0
-0.164427 -0.310092 0
-0.145967 -0.333486 0
-0.115209 -0.328471 0
-0.0749246 -0.281373 0
-0.0341287 -0.185738 0
-0.0075951 -0.0586305 0
-0.00030944 0.0398026 0
-0.00184272 0.097182 0
-0.00513647 0.135887 0
-0.00984507 0.160594 0
-0.0153806 0.175743 0
-0.021186 0.184669 0
-0.0268597 0.18945 0
-0.032171 0.191159 0
-0.037027 0.190213 0
-0.0414308 0.186657 0
-0.0454466 0.180362 0
-0.0491769 0.17114 0
-0.0527517 0.158822 0
-0.0563229 0.143299 0
-0.0600645 0.124555 0
-0.0641761 0.102687 0
-0.0688886 0.0778934 0
-0.0744676 0.0504485 0
-0.0812047 0.0206271 0
-0.089375 -0.0113909 0
-0.0991746 -0.0456245 0
-0.110654 -0.0825991 0
-0.123535 -0.123211 0
-0.13692 -0.168259 0
-0.149038 -0.217684 0
-0.157111 -0.269491 0
-0.157512 -0.318433 0
-0.14639 -0.354726 0
-0.121084 -0.363296 0
-0.0826705 -0.325245 0
-0.0395735 -0.225759 0
-0.00924589 -0.0754715 0
-0.000125349 0.0402374 0
-0.00103881 0.0991939 0
-0.00327972 0.13941 0
-0.00661233 0.165113 0
-0.0105061 0.180653 0
-0.0144295 0.189487 0
-0.0179959 0.193872 0
-0.0209936 0.195046 0
-0.023361 0.19355 0
-0.0251442 0.189508 0
-0.0264592 0.182842 0
-0.0274667 0.173398 0
-0.0283589 0.161031 0
-0.0293525 0.145654 0
-0.0306852 0.127274 0
-0.0326159 0.10601 0
-0.035428 0.0820942 0
-0.039434 0.0558326 0
-0.0449796 0.0275257 0
-0.0524308 -0.00266813 0
-0.062099 -0.0348796 0
-0.0741887 -0.0697747 0
-0.0886822 -0.10866 0
-0.105033 -0.153073 0
-0.121799 -0.203987 0
-0.136329 -0.260585 0
-0.144685 -0.318582 0
-0.142058 -0.368326 0
-0.124059 -0.393 0
-0.0895327 -0.36848 0
-0.0453891 -0.269764 0
-0.0112327 -0.0959501 0
-2.6697e-05 0.0403895 0
-0.000541583 0.10047 0
-0.0019706 0.141803 0
-0.00407881 0.16816 0
-0.00637008 0.183791 0
-0.00836023 0.192263 0
-0.00971038 0.196012 0
-0.0102575 0.196451 0
-0.00999334 0.194249 0
-0.00902289 0.189622 0
-0.00752355 0.182544 0
-0.00571883 0.172899 0
-0.00386585 0.16057 0
-0.00224683 0.14549 0
-0.00116235 0.127686 0
-0.000927615 0.107294 0
-0.00186963 0.0845644 0
-0.00432595 0.0598249 0
-0.00864764 0.0334008 0
-0.0152054 0.00546568 0
-0.0243591 -0.0241915 0
-0.0364132 -0.056319 0
-0.0515698 -0.092466 0
-0.0696929 -0.134793 0
-0.0898689 -0.185325 0
-0.109898 -0.244689 0
-0.125919 -0.3101 0
-0.132474 -0.372881 0
-0.123479 -0.415439 0
-0.0950721 -0.408974 0
-0.0515459 -0.31694 0
-0.0136468 -0.12083 0
-5.70037e-05 0.0404732 0
-0.000513396 0.101358 0
-0.00151108 0.143343 0
-0.00264944 0.169867 0
-0.00343261 0.185158 0
-0.00345856 0.192912 0
-0.00248712 0.195742 0
-0.000446738 0.195228 0
0.00258586 0.192175 0
0.00642665 0.186884 0
0.0108234 0.179385 0
0.0154799 0.169596 0
0.0200709 0.157428 0
0.0242518 0.142832 0
0.0276646 0.125847 0
0.0299466 0.106616 0
0.0307402 0.0853905 0
0.029703 0.0624923 0
0.0265155 0.0382425 0
0.0208784 0.0128189 0
0.0124764 -0.0139889 0
0.000976536 -0.0429676 0
-0.0139717 -0.0757126 0
-0.0325937 -0.114802 0
-0.0546163 -0.163118 0
-0.07862 -0.222864 0
-0.101317 -0.293207 0
-0.117124 -0.367413 0
-0.118541 -0.428486 0
-0.0986636 -0.444212 0
-0.0579225 -0.36597 0
-0.0165726 -0.151049 0
-0.000282607 0.0408128 0
-0.00118234 0.102374 0
-0.00228977 0.144431 0
-0.0028029 0.17043 0
-0.00219358 0.184769 0
-0.000202091 0.191335 0
0.00324035 0.192905 0
0.00804529 0.19122 0
0.0139996 0.187196 0
0.0208183 0.181204 0
0.0281683 0.173319 0
0.0356843 0.16349 0
0.0429803 0.151647 0
0.0496583 0.137754 0
0.0553157 0.121855 0
0.0595566 0.104086 0
0.0620056 0.0846785 0
0.0623245 0.0639227 0
0.0602245 0.0420994 0
0.055467 0.0193566 0
0.0478311 -0.00448891 0
0.0370791 -0.0302157 0
0.0229267 -0.0593639 0
0.00495436 -0.0945561 0
-0.017253 -0.139133 0
-0.0432936 -0.196804 0
-0.0709753 -0.268887 0
-0.0953477 -0.351553 0
-0.108124 -0.430153 0
-0.0993168 -0.471229 0
-0.0641704 -0.41484 0
-0.0200386 -0.18766 0
-0.000816796 0.0419122 0
-0.00289732 0.104255 0
-0.00483017 0.145591 0
-0.00510746 0.170061 0
-0.00317516 0.182597 0
0.00097159 0.18737 0
0.00710681 0.187293 0
0.0148999 0.184234 0
0.0239628 0.179164 0
0.0338892 0.17249 0
0.044262 0.16431 0
0.0546556 0.15459 0
0.0646385 0.143268 0
0.0737779 0.130315 0
0.0816475 0.115767 0
0.0878391 0.0997415 0
0.0919793 0.0824336 0
0.0937475 0.0640804 0
0.0928903 0.0448989 0
0.0892224 0.0249826 0
0.0826015 0.00414183 0
0.0728545 -0.0183474 0
0.0597243 -0.0439496 0
0.042824 -0.0750977 0
0.0216436 -0.115204 0
-0.00438156 -0.168668 0
-0.034791 -0.238932 0
-0.0661823 -0.325744 0
-0.0905832 -0.418785 0
-0.0954059 -0.486582 0
-0.069485 -0.460555 0
-0.0239318 -0.231631 0
-0.00186306 0.044592 0
-0.00621056 0.108003 0
-0.00983321 0.147398 0
-0.0101932 0.168891 0
-0.00684186 0.178483 0
-0.000232813 0.180727 0
0.00895631 0.17861 0
0.020064 0.174015 0
0.0324927 0.167891 0
0.0457068 0.160623 0
0.0592145 0.152297 0
0.0725485 0.142875 0
0.085255 0.132293 0
0.0968925 0.120513 0
0.107037 0.107555 0
0.115293 0.0935058 0
0.12131 0.0785118 0
0.1248 0.0627445 0
0.125546 0.0463462 0
0.123405 0.0293436 0
0.118284 0.011523 0
0.110067 -0.00776433 0
0.0985118 -0.0298476 0
0.0832075 -0.0569951 0
0.0635416 -0.0924602 0
0.0386673 -0.140512 0
0.00781932 -0.205831 0
-0.0281911 -0.291444 0
-0.0635076 -0.393368 0
-0.0842934 -0.48639 0
-0.0722397 -0.498721 0
-0.0278476 -0.28341 0
-0.00378037 0.0502355 0
-0.0119549 0.114882 0
-0.0181103 0.150297 0
-0.0185218 0.166763 0
-0.0132519 0.17199 0
-0.00354178 0.170902 0
0.00930657 0.166399 0
0.024229 0.160197 0
0.0404039 0.153106 0
0.0571848 0.145413 0
0.0740335 0.13715 0
0.0904714 0.12825 0
0.106054 0.11863 0
0.120362 0.108232 0
0.133 0.0970524 0
0.143614 0.0851389 0
0.151893 0.0725824 0
0.15759 0.0594866 0
0.160529 0.0459197 0
0.160594 0.031845 0
0.157714 0.0170231 0
0.151796 0.000870421 0
0.142602 -0.0177327 0
0.12967 -0.0408745 0
0.112253 -0.071498 0
0.0891945 -0.113541 0
0.059033 -0.171793 0
0.0207654 -0.251204 0
-0.0235026 -0.354023 0
-0.061849 -0.466603 0
-0.0693983 -0.523013 0
-0.0308254 -0.342083 0
-0.00713764 0.0611535 0
-0.0211372 0.126138 0
-0.0300421 0.154101 0
-0.0294833 0.162812 0
-0.0209245 0.162112 0
-0.00684379 0.156988 0
0.0106997 0.14992 0
0.0302371 0.142215 0
0.0507665 0.134383 0
0.0715896 0.126532 0
0.0921738 0.118598 0
0.112074 0.110464 0
0.130891 0.102016 0
0.148259 0.0931705 0
0.163842 0.0838919 0
0.177341 0.0741872 0
0.188502 0.0640939 0
0.197125 0.0536543 0
0.203063 0.0428756 0
0.206212 0.031674 0
0.206488 0.019799 0
0.20377 0.00673046 0
0.197834 -0.00846216 0
0.188168 -0.0275481 0
0.173817 -0.0530563 0
0.153281 -0.0883876 0
0.124455 -0.137958 0
0.0849911 -0.207306 0
0.0339563 -0.302618 0
-0.0219065 -0.423799 0
-0.055554 -0.52462 0
-0.030847 -0.403755 0
-0.0125452 0.0808363 0
-0.0338959 0.141806 0
-0.0433196 0.156762 0
-0.0383427 0.154615 0
-0.0233549 0.146763 0
-0.00246127 0.137363 0
0.0215713 0.127969 0
0.0470338 0.119167 0
0.0729147 0.111022 0
0.0985785 0.103407 0
0.123577 0.0961406 0
0.147554 0.0890456 0
0.170198 0.0819731 0
0.191228 0.0748149 0
0.210387 0.0675053 0
0.227447 0.0600151 0
0.242213 0.0523384 0
0.254528 0.0444716 0
0.264267 0.0363815 0
0.271323 0.027963 0
0.275577 0.0189803 0
0.276857 0.00898712 0
0.274867 -0.00279301 0
0.269016 -0.0177001 0
0.258174 -0.0377115 0
0.240486 -0.0655082 0
0.213243 -0.10477 0
0.172979 -0.160767 0
0.116363 -0.241507 0
0.0443059 -0.35699 0
-0.0213071 -0.492169 0
-0.0238094 -0.458412 0
-0.0191495 0.112531 0