# vtk DataFile Version 2.0
Lid-driven cavity
ASCII
DATASET STRUCTURED_POINTS
DIMENSIONS 32 32 1
ORIGIN 0.015625 0.015625 0
SPACING 0.03125 0.03125 1
POINT_DATA 1024
SCALARS pressure double 1
LOOKUP_TABLE default
41.3168
41.1371
40.8207
40.4685
40.1417
39.8711
39.6721
39.5553
39.5331
39.6204
39.8343
40.1908
40.7016
41.3699
42.1874
43.131
44.1614
45.2251
46.2522
47.1633
47.8798
48.3353
48.4876
48.3287
47.8889
47.2345
46.4579
45.6654
44.9628
44.4421
44.1698
44.1559
41.4964
41.3089
41.0449
40.7624
40.4999
40.2792
40.1139
40.015
39.9949
40.0683
40.2513
40.5589
41.0024
41.5858
42.3029
43.1341
44.0449
44.9888
45.9024
46.7136
47.3509
47.7543
47.8867
47.7431
47.3538
46.7814
46.1106
45.4324
44.8348
44.3897
44.1491
44.1418
41.8246
41.557
41.2832
41.0256
40.7974
40.6059
40.4568
40.3579
40.3205
40.3595
40.4918
40.7345
41.1015
41.6009
42.231
42.9774
43.8106
44.6877
45.5478
46.3198
46.9316
47.3219
47.4519
47.3153
46.9421
46.3945
45.7564
45.1167
44.5535
44.1299
43.8913
43.8733
42.1877
41.8059
41.4878
41.2242
41.0037
40.8172
40.661
40.5378
40.4577
40.4364
40.4934
40.65
40.9256
41.3348
41.8828
42.5617
43.3478
44.1988
45.0542
45.84
46.4787
46.9014
47.0618
46.9468
46.5829
46.0327
45.3825
44.7247
44.1396
43.6868
43.4097
43.3419
42.4798
41.9714
41.5921
41.3017
41.0653
40.8579
40.6661
40.4884
40.3336
40.2193
40.1694
40.2113
40.3722
40.6751
41.1342
41.7504
42.5067
43.3612
44.2536
45.1054
45.8299
46.3454
46.5909
46.5398
46.2088
45.6571
44.9743
44.2608
43.6062
43.0772
42.7192
42.5658
42.5989
41.9634
41.516
41.1844
40.9105
40.6545
40.3948
40.1263
39.8579
39.6103
39.413
39.3011
39.3116
39.4781
39.8261
40.3671
41.0944
41.9693
42.934
43.9056
44.7858
45.475
45.8892
45.9783
45.7393
45.2198
44.5097
43.72
42.958
42.3079
41.827
41.556
42.4443
41.6875
41.1702
40.7859
40.4535
40.1196
39.7558
39.3547
38.9263
38.4955
38.0984
37.7795
37.5871
37.568
37.7614
38.1928
38.869
39.7637
40.8259
41.9711
43.0885
44.0555
44.7561
45.1036
45.0599
44.6479
43.9488
43.0844
42.1872
41.373
40.7258
40.3057
41.9158
41.0482
40.4614
40.0134
39.6005
39.1569
38.6487
38.0668
37.4234
36.7479
36.084
35.4868
35.0177
34.7392
34.7077
34.9669
35.5411
36.4287
37.5961
38.9619
40.4047
41.7753
42.9164
43.6888
43.9994
43.8248
43.2216
42.3157
41.2724
40.2558
39.3977
38.7895
40.9178
39.9527
39.2973
38.7738
38.2565
37.6685
36.9706
36.1531
35.2298
34.2349
33.2203
32.2522
31.4074
30.7667
30.4083
30.3993
30.7868
31.6046
32.8558
34.471
36.3233
38.2366
40.0047
41.4193
42.3077
42.5708
42.2128
41.3476
40.1746
38.9259
37.8074
36.9653
39.3639
38.3178
37.5944
36.9816
36.3336
35.5628
34.6253
33.51
32.232
30.8298
29.3629
27.9098
26.5638
25.428
24.6073
24.1981
24.2774
24.9182
26.191
28.0511
30.376
32.9681
35.5686
37.8865
39.6428
40.6258
40.7466
40.075
38.8342
37.3413
35.912
34.7795
37.1846
36.0762
35.2847
34.5673
33.7598
32.765
31.5339
30.0531
28.3376
26.429
24.3937
22.3223
20.3268
18.5356
17.0856
16.1106
15.7279
16.0365
17.2168
19.2678
22.0866
25.4654
29.0979
32.6033
35.5733
37.6426
38.5754
38.3447
37.1662
35.4497
33.6625
32.1718
34.3337
33.1837
32.3239
31.4856
30.4891
29.228
27.6481
25.7319
23.4928
20.9732
18.2455
15.4119
12.6041
9.97851
7.70902
5.97401
4.93957
4.73923
5.6532
7.77886
11.0496
15.2658
20.0885
25.0526
29.6076
33.1977
35.3777
35.9484
35.057
33.1904
31.01
29.0831
30.7948
29.6256
28.6978
27.7232
26.5096
24.9429
22.9622
20.5449
17.7002
14.4695
10.9289
7.19145
3.40853
-0.23331
-3.51962
-6.22184
-8.11764
-9.01813
-8.59149
-6.57127
-2.96882
2.04896
8.13746
14.7686
21.2559
26.8295
30.7746
32.6257
32.3633
30.4984
27.9149
25.4659
26.5855
25.4205
24.4268
23.3041
21.8511
19.947
17.5239
14.5521
11.0347
7.00949
2.55411
-2.20911
-7.11003
-11.9316
-16.4168
-20.2827
-23.244
-25.0445
-25.342
-23.6589
-19.926
-14.2486
-6.94042
1.4477
10.1243
18.1087
24.3719
28.0825
28.92
27.312
24.3584
21.2985
21.7587
20.6215
19.5676
18.2917
16.5877
14.3287
11.4398
7.88265
3.65198
-1.22011
-6.65683
-12.5289
-18.6491
-24.7711
-30.5958
-35.7851
-39.9864
-42.8659
-44.1
-43.0142
-39.4196
-33.334
-24.9983
-14.9305
-3.96844
6.73669
15.8316
22.0327
24.5598
23.5864
20.3605
16.6037
16.3997
15.3135
14.2102
12.7871
10.8363
8.22641
4.87483
0.733573
-4.21258
-9.93949
-16.3734
-23.3807
-30.7594
-38.237
-45.475
-52.083
-57.644
-61.7497
-64.044
-63.8096
-60.6588
-54.5047
-45.4783
-34.0015
-20.8754
-7.34038
4.96707
14.2648
19.152
19.3189
16.004
11.4748
10.6205
9.60643
8.47127
6.92135
4.74978
1.82091
-1.95577
-6.63904
-12.2556
-18.7909
-26.1764
-34.276
-42.8765
-51.6826
-60.3211
-68.3554
-75.3111
-80.7134
-84.135
-84.931
-82.5126
-76.6709
-67.4006
-54.9676
-40.0397
-23.8281
-8.15152
4.72753
12.6608
14.5858
11.4689
6.11006
4.54909
3.62502
2.48356
0.845328
-1.49442
-4.67626
-8.80019
-13.9372
-20.1269
-27.3657
-35.5918
-44.669
-54.3748
-64.3954
-74.3286
-83.6993
-91.9855
-98.6562
-103.217
-105.111
-103.639
-98.4685
-89.4446
-76.6343
-60.48
-42.0231
-23.1073
-6.37499
5.22181
9.59791
7.07886
0.861441
-1.68251
-2.50433
-3.61785
-5.28454
-7.70847
-11.0388
-15.3884
-20.843
-27.4571
-35.2394
-44.1354
-54.0101
-64.6344
-75.6791
-86.7185
-97.2473
-106.708
-114.527
-120.162
-123.11
-122.679
-118.451
-110.121
-97.543
-80.8662
-60.8241
-39.0902
-18.5026
-2.77118
4.77446
3.36838
-3.69605
-7.95308
-8.66824
-9.71028
-11.3209
-13.7095
-17.0419
-21.451
-27.0422
-33.8871
-42.0076
-51.3572
-61.8023
-73.108
-84.9328
-96.8326
-108.279
-118.689
-127.465
-134.038
-137.902
-138.483
-135.325
-128.009
-116.187
-99.6887
-78.8317
-54.9187
-30.7334
-10.5823
0.836273
1.17718
-6.6592
-14.1669
-14.7817
-15.6983
-17.1396
-19.333
-22.477
-26.7369
-32.2452
-39.094
-47.3193
-56.8813
-67.6465
-79.3748
-91.7139
-104.205
-116.302
-127.406
-136.905
-144.221
-148.841
-150.296
-148.169
-141.997
-131.261
-115.49
-94.5296
-69.141
-41.7754
-17.0693
-1.08454
1.78436
-6.63834
-20.2695
-20.8041
-21.5276
-22.6503
-24.4424
-27.1616
-31.0252
-36.2034
-42.8128
-50.9022
-60.435
-71.2746
-83.1749
-95.7738
-108.601
-121.097
-132.653
-142.648
-150.502
-155.707
-157.845
-156.574
-151.462
-141.879
-127.1
-106.505
-80.2016
-50.0423
-20.6566
0.671013
7.088
-1.5274
-26.2657
-26.7566
-27.1971
-27.8038
-28.933
-30.9442
-34.1332
-38.72
-44.8498
-52.579
-61.8723
-72.5878
-84.4653
-97.128
-110.092
-122.786
-134.593
-144.89
-153.096
-158.714
-161.333
-160.661
-156.328
-147.684
-133.803
-113.649
-86.631
-53.784
-19.3604
8.39109
19.8261
11.809
-32.2464
-32.7463
-32.7722
-32.5938
-32.7294
-33.7025
-35.9199
-39.6714
-45.123
-52.3322
-61.2502
-71.7155
-83.4483
-96.0523
-109.027
-121.79
-133.716
-144.178
-152.597
-158.477
-161.412
-161.067
-157.051
-148.819
-135.374
-115.253
-87.193
-51.2323
-10.8653
25.0534
43.8156
37.9289
-38.4388
-39.0067
-38.4009
-37.0553
-35.7765
-35.3379
-36.2929
-38.9883
-43.6051
-50.1857
-58.6521
-68.81
-80.3491
-92.8474
-105.785
-118.565
-130.556
-141.124
-149.686
-155.735
-158.853
-158.665
-154.643
-146.112
-132.031
-110.968
-80.9274
-40.7022
7.36469
54.3106
84.1625
83.2712
-45.3173
-45.9775
-44.343
-41.2604
-38.0244
-35.752
-35.1651
-36.6349
-40.3303
-46.2508
-54.2669
-64.135
-75.5036
-87.9188
-100.837
-113.65
-125.712
-136.383
-145.064
-151.224
-154.408
-154.204
-149.909
-140.595
-124.975
-101.197
-67.0786
-20.5974
37.9838
100.367
147.373
156.656
-53.8654
-54.4684
-51.0221
-45.3148
-39.4183
-34.8585
-32.4937
-32.6506
-35.4289
-40.7444
-48.3885
-58.0518
-69.3317
-81.7375
-94.7015
-107.598
-119.773
-130.571
-139.37
-145.6
-148.74
-148.291
-143.478
-132.887
-114.826
-86.8696
-45.9872
10.6677
83.7039
167.703
241.253
269.816
-66.2169
-65.9883
-59.0932
-49.3242
-39.861
-32.5694
-28.2788
-27.1475
-29.1168
-33.9667
-41.3819
-50.9731
-62.2804
-74.7748
-87.8639
-100.907
-113.237
-124.183
-133.094
-139.344
-142.322
-141.389
-135.748
-123.35
-101.905
-68.2192
-18.1377
52.7266
146.955
260.54
374.357
437.98
-87.2619
-83.2785
-69.3619
-53.1767
-39.0391
-28.673
-22.4691
-20.2224
-21.6055
-26.2083
-33.5865
-43.2644
-54.7254
-67.4041
-80.6869
-93.9202
-106.426
-117.516
-126.506
-132.707
-135.4
-133.776
-126.829
-112.087
-86.3285
-45.4294
16.1571
104.912
226.65
382.06
554.381
680.424
-128.657
-110.339
-81.65
-55.5412
-35.7687
-22.3393
-14.5469
-11.6172
-12.8208
-17.5153
-25.1213
-35.0838
-46.8396
-59.7976
-73.331
-86.7801
-99.4603
-110.67
-119.69
-125.764
-128.056
-125.551
-116.923
-99.2813
-68.5126
-19.4868
54.9002
163.811
318.107
528.038
789.368
1020.06
-217.237
-146.555
-89.326
-50.3887
-25.4695
-10.4349
-2.55485
-0.123651
-2.01864
-7.43053
-15.7081
-26.2661
-38.5319
-51.9152
-65.7958
-79.5217
-92.4124
-103.76
-112.817
-118.768
-120.656
-117.262
-106.896
-86.2005
-50.6553
5.74509
91.5049
218.671
405.069
679.391
1083.87
1570.69
-436.932
-157.763
-59.3509
-18.2836
1.93727
12.212
16.3158
15.8753
11.7897
4.68324
-4.92358
-16.5369
-29.6492
-43.7195
-58.1656
-72.3644
-85.655
-97.3369
-106.655
-112.758
-114.621
-110.881
-99.5387
-77.228
-39.3503
20.4764
111.41
247.259
451.569
774.442
1351.25
2535.99
VECTORS velocity double
8.32948e-05 -8.32948e-05 0
0.000170133 -3.54361e-06 0
3.62696e-05 0.000137407 0
-0.000367698 0.00026656 0
-0.0010002 0.000365938 0
-0.00180478 0.000438644 0
-0.00273564 0.000492214 0
-0.00375975 0.000531896 0
-0.00485063 0.000558989 0
-0.00598105 0.000571433 0
-0.00711758 0.000565095 0
-0.00821777 0.000535097 0
-0.00922981 0.000476935 0
-0.0100942 0.000387433 0
-0.0107472 0.000265579 0
-0.011126 0.000113241 0
-0.0111749 -6.43471e-05 0
-0.010852 -0.000258601 0
-0.0101379 -0.000455426 0
-0.00904554 -0.000636963 0
-0.00762513 -0.000783443 0
-0.00596587 -0.000875824 0
-0.004191 -0.000899039 0
-0.00244657 -0.000845393 0
-0.000883903 -0.000717274 0
0.000361719 -0.000528348 0
0.0011929 -0.000302829 0
0.001567 -7.12754e-05 0
0.00150716 0.00013111 0
0.00111068 0.000265376 0
0.000560856 0.000284445 0
0.000138205 0.000138205 0
2.6503e-09 -0.000166592 0
-0.000248413 0.000241331 0
-0.00105587 0.000833852 0
-0.0024586 0.00137681 0
-0.0043756 0.0018052 0
-0.00669665 0.00212502 0
-0.00931943 0.00235948 0
-0.0121557 0.00252497 0
-0.0151231 0.00262427 0
-0.0181349 0.0026483 0
-0.0210911 0.00258096 0
-0.0238759 0.00240427 0
-0.026359 0.00210284 0
-0.0284007 0.00166759 0
-0.0298611 0.00109884 0
-0.030611 0.000408705 0
-0.0305445 -0.000377337 0
-0.0295937 -0.00121939 0
-0.0277425 -0.00205983 0
-0.0250394 -0.00282811 0
-0.0216047 -0.0034474 0
-0.0176318 -0.00384402 0
-0.0133786 -0.00395891 0
-0.0091485 -0.00376005 0
-0.00526057 -0.00325322 0
-0.00201049 -0.0024881 0
0.000372734 -0.00155748 0
0.0017696 -0.000587599 0
0.00220145 0.000275418 0
0.00184648 0.000872531 0
0.00104327 0.00103032 0
0.000290919 0.00056733 0
-0.000181223 1.46277e-05 0
-0.00100616 0.00113346 0
-0.00274589 0.00248891 0
-0.00532578 0.00370436 0
-0.00860189 0.00467076 0
-0.0124193 0.00539791 0
-0.0166349 0.00592499 0
-0.0211171 0.0062779 0
-0.0257354 0.00645712 0
-0.0303498 0.00644152 0
-0.034804 0.00619818 0
-0.0389251 0.00569302 0
-0.0425279 0.00489994 0
-0.0454238 0.00380809 0
-0.0474326 0.00242752 0
-0.0483959 0.000793245 0
-0.048192 -0.00103221 0
-0.0467506 -0.00295671 0
-0.0440664 -0.00485796 0
-0.0402098 -0.00658968 0
-0.0353365 -0.00799388 0
-0.0296889 -0.00891806 0
-0.0235901 -0.00923685 0
-0.017426 -0.00887626 0
-0.0116142 -0.00783681 0
-0.00655861 -0.00621013 0
-0.00259463 -0.00418265 0
6.94452e-05 -0.00202337 0
0.0014042 -5.54109e-05 0
0.00159104 0.00137149 0
0.00102403 0.00190158 0
0.000307099 0.00116535 0
-0.000400687 0.000596538 0
-0.00191482 0.00289062 0
-0.00473182 0.00528849 0
-0.00860373 0.00735658 0
-0.013294 0.00898493 0
-0.0185968 0.010204 0
-0.0243335 0.0110713 0
-0.0303385 0.0116188 0
-0.0364437 0.0118398 0
-0.0424683 0.0116978 0
-0.0482146 0.0111425 0
-0.0534708 0.0101261 0
-0.0580183 0.00861715 0
-0.0616421 0.00661056 0
-0.0641434 0.00413518 0
-0.0653531 0.00125862 0
-0.0651447 -0.00190991 0
-0.0634456 -0.00521944 0
-0.0602474 -0.0084777 0
-0.0556181 -0.0114558 0
-0.0497141 -0.0139051 0
-0.0427872 -0.0155813 0
-0.0351843 -0.0162754 0
-0.027335 -0.015851 0
-0.0197254 -0.0142835 0
-0.0128522 -0.0116922 0
-0.00715931 -0.00835742 0
-0.00296362 -0.00470837 0
-0.000384831 -0.00128394 0
0.000704569 0.00132378 0
0.000698472 0.0025224 0
0.000243741 0.00171619 0
-0.000634957 0.00163218 0
-0.00288497 0.00561912 0
-0.0068412 0.00933323 0
-0.0120507 0.0123932 0
-0.0181658 0.0147537 0
-0.0249242 0.0164964 0
-0.0321147 0.0177061 0
-0.0395456 0.0184199 0
-0.047023 0.0186212 0
-0.0543391 0.018257 0
-0.0612709 0.0172613 0
-0.0675845 0.015577 0
-0.0730438 0.013173 0
-0.0774214 0.0100561 0
-0.0805096 0.00627925 0
-0.0821317 0.00194638 0
-0.0821521 -0.00278571 0
-0.0804829 -0.00771192 0
-0.0770918 -0.0125746 0
-0.0720176 -0.0170625 0
-0.0653886 -0.0208315 0
-0.0574363 -0.0235339 0
-0.048504 -0.024858 0
-0.0390435 -0.0245781 0
-0.029597 -0.0226125 0
-0.0207548 -0.0190787 0
-0.013087 -0.0143318 0
-0.00705206 -0.00896461 0
-0.00290085 -0.0037577 0
-0.000601387 0.000408681 0
0.000195831 0.00264638 0
0.00014142 0.00210135 0
-0.000871998 0.00313914 0
-0.00386348 0.00935365 0
-0.00895857 0.01465 0
-0.0154894 0.0188167 0
-0.0229927 0.0219486 0
-0.0311491 0.0242164 0
-0.0397195 0.0257468 0
-0.0484943 0.0265849 0
-0.0572648 0.026704 0
-0.0658099 0.0260354 0
-0.0738951 0.0244998 0
-0.0812772 0.0220342 0
-0.0877132 0.0186111 0
-0.0929686 0.014251 0
-0.096827 0.00903099 0
-0.0990984 0.00308806 0
-0.0996261 -0.00337928 0
-0.0982914 -0.0101223 0
-0.0950189 -0.0168279 0
-0.0897962 -0.023106 0
-0.0827001 -0.0285132 0
-0.0739185 -0.0325861 0
-0.0637684 -0.0348882 0
-0.0527056 -0.0350713 0
-0.0413174 -0.032954 0
-0.0302907 -0.0286061 0
-0.0203427 -0.0224203 0
-0.0121141 -0.0151395 0
-0.00603974 -0.00780836 0
-0.0022324 -0.00164746 0
-0.000424026 0.00209693 0
1.9206e-05 0.00226197 0
-0.00110202 0.00511315 0
-0.00480757 0.0140767 0
-0.0109904 0.0212049 0
-0.0187738 0.0265761 0
-0.0275844 0.030503 0
-0.0370518 0.0332859 0
-0.0469146 0.0351104 0
-0.0569541 0.0360356 0
-0.0669569 0.0360267 0
-0.0766997 0.0350008 0
-0.0859471 0.032867 0
-0.0944552 0.0295574 0
-0.101979 0.0250471 0
-0.108276 0.0193678 0
-0.113117 0.0126142 0
-0.11629 0.00494878 0
-0.117604 -0.00339839 0
-0.116897 -0.0121445 0
-0.11404 -0.0209356 0
-0.108953 -0.0293076 0
-0.101645 -0.0367159 0
-0.092239 -0.0425711 0
-0.0810031 -0.0462892 0
-0.068373 -0.0473632 0
-0.0549627 -0.0454606 0
-0.0415479 -0.040541 0
-0.029007 -0.0329744 0
-0.0182037 -0.0236173 0
-0.00982021 -0.0137885 0
-0.00418242 -0.00511246 0
-0.00115062 0.000721747 0
-0.000118937 0.00216224 0
-0.00131478 0.00752995 0
-0.00567586 0.0197265 0
-0.0128504 0.0289125 0
-0.0217716 0.0355732 0
-0.0317686 0.0403135 0
-0.0424287 0.0436029 0
-0.0534758 0.0457034 0
-0.0646894 0.0466956 0
-0.0758599 0.0465399 0
-0.0867703 0.0451407 0
-0.0971912 0.0423954 0
-0.106883 0.0382289 0
-0.115599 0.0326146 0
-0.123088 0.0255874 0
-0.129103 0.0172508 0
-0.133399 0.00778126 0
-0.135746 -0.00257038 0
-0.135933 -0.0134923 0
-0.133771 -0.0246071 0
-0.129108 -0.0353852 0
-0.121872 -0.045183 0
-0.112102 -0.0532795 0
-0.0999934 -0.0589257 0
-0.085929 -0.061421 0
-0.0705166 -0.0602254 0
-0.0545961 -0.0551113 0
-0.0392029 -0.0463383 0
-0.0254542 -0.0348053 0
-0.0143485 -0.0220896 0
-0.00651349 -0.0102841 0
-0.0020074 -0.00164448 0
-0.000276959 0.00176635 0
-0.00149935 0.0103441 0
-0.00642661 0.0262007 0
-0.0144555 0.0376417 0
-0.0243577 0.0456673 0
-0.035382 0.0512408 0
-0.047083 0.0550366 0
-0.0591766 0.0574104 0
-0.0714465 0.058472 0
-0.083693 0.0581806 0
-0.095711 0.0564284 0
-0.107282 0.0530994 0
-0.118172 0.0481067 0
-0.128134 0.0414145 0
-0.136908 0.0330509 0
-0.144223 0.023117 0
-0.149803 0.0117921 0
-0.153375 -0.000662578 0
-0.15468 -0.0139082 0
-0.153474 -0.0275598 0
-0.149532 -0.0410364 0
-0.142695 -0.0536052 0
-0.132905 -0.0644169 0
-0.120253 -0.0725496 0
-0.105033 -0.0770817 0
-0.0877988 -0.0772116 0
-0.0694075 -0.0724369 0
-0.0510212 -0.0627923 0
-0.0340183 -0.0491029 0
-0.0197754 -0.0331406 0
-0.00932922 -0.0175143 0
-0.00304241 -0.00520716 0
-0.000466602 0.00102279 0
-0.00164463 0.0134881 0
-0.00701899 0.0333584 0
-0.0157265 0.0472205 0
-0.0264142 0.0566785 0
-0.0382695 0.0631093 0
-0.0508226 0.0674222 0
-0.0637865 0.0700823 0
-0.0769528 0.0712363 0
-0.0901357 0.0708457 0
-0.103145 0.0687906 0
-0.115775 0.0649384 0
-0.127802 0.0591845 0
-0.138979 0.0514751 0
-0.149037 0.0418219 0
-0.157688 0.0303121 0
-0.164628 0.0171176 0
-0.169546 0.00250232 0
-0.17214 -0.0131738 0
-0.172119 -0.0295226 0
-0.169198 -0.0459358 0
-0.16313 -0.0616108 0
-0.153746 -0.075585 0
-0.14101 -0.0867697 0
-0.125082 -0.0940095 0
-0.106404 -0.0961962 0
-0.0857826 -0.0924646 0
-0.0644457 -0.0824878 0
-0.0440051 -0.066851 0
-0.026254 -0.0473865 0
-0.0127534 -0.0272153 0
-0.00431783 -0.0102286 0
-0.000702808 -0.000146624 0
-0.00174039 0.0168731 0
-0.00741585 0.0410232 0
-0.016592 0.0574393 0
-0.0278349 0.0683903 0
-0.0402887 0.0757065 0
-0.0534663 0.0805556 0
-0.0670797 0.0835261 0
-0.0809303 0.0848094 0
-0.094847 0.0843723 0
-0.108657 0.082083 0
-0.122169 0.0777892 0
-0.135172 0.0713629 0
-0.147423 0.0627247 0
-0.158654 0.0518611 0
-0.168566 0.0388365 0
-0.17684 0.0238066 0
-0.183138 0.00702975 0
-0.187121 -0.0111238 0
-0.188466 -0.0302488 0
-0.18685 -0.0497474 0
-0.181941 -0.0687756 0
-0.173458 -0.0862868 0
-0.161214 -0.101049 0
-0.145194 -0.111678 0
-0.125664 -0.116736 0
-0.103294 -0.114915 0
-0.0792873 -0.105381 0
-0.0554182 -0.0882675 0
-0.0338942 -0.065245 0
-0.0169043 -0.0398473 0
-0.00590009 -0.0170363 0
-0.00100227 -0.0018517 0
-0.0017783 0.0203918 0
-0.00758709 0.0489887 0
-0.016994 0.0680568 0
-0.028532 0.0805539 0
-0.0413197 0.0887846 0
-0.0548566 0.094192 0
-0.0688533 0.0975 0
-0.0831197 0.0989524 0
-0.0974994 0.0985256 0
-0.111837 0.0960764 0
-0.125959 0.091431 0
-0.139669 0.0844339 0
-0.15274 0.0749755 0
-0.164909 0.0630108 0
-0.175886 0.0485756 0
-0.185348 0.0318025 0
-0.192951 0.0129354 0
-0.198339 -0.00765819 0
-0.201173 -0.0295352 0
-0.201102 -0.0521486 0
-0.197735 -0.0746498 0
-0.19068 -0.0959509 0
-0.179588 -0.11472 0
-0.164237 -0.129379 0
-0.144647 -0.138156 0
-0.121263 -0.139249 0
-0.0951414 -0.131176 0
-0.0681071 -0.113376 0
-0.0427228 -0.0870446 0
-0.0218721 -0.0558883 0
-0.00785183 -0.0260198 0
-0.00138196 -0.00423594 0
-0.00175312 0.0239232 0
-0.00751334 0.0570263 0
-0.0168942 0.0788069 0
-0.0284456 0.0928933 0
-0.041277 0.102064 0
-0.054876 0.108048 0
-0.0689493 0.111714 0
-0.0833119 0.113367 0
-0.0978203 0.112999 0
-0.112336 0.110456 0
-0.126707 0.105545 0
-0.140757 0.0980804 0
-0.154279 0.0879219 0
-0.167036 0.0749912 0
-0.178757 0.0592925 0
-0.189141 0.0409309 0
-0.19786 0.0201293 0
-0.204567 -0.00275696 0
-0.208922 -0.0272482 0
-0.210564 -0.0528642 0
-0.209069 -0.0787965 0
-0.203955 -0.103974 0
-0.194715 -0.127028 0
-0.180889 -0.146247 0
-0.162203 -0.159563 0
-0.138772 -0.164657 0
-0.111378 -0.159284 0
-0.0817393 -0.14194 0
-0.0526528 -0.112951 0
-0.0276995 -0.0757856 0
-0.0102257 -0.0376166 0
-0.00185843 -0.00747633 0
-0.00166362 0.0273399 0
-0.00718926 0.0648954 0
-0.0162798 0.0894091 0
-0.0275522 0.105115 0
-0.0401219 0.115244 0
-0.0534646 0.12181 0
-0.0672785 0.125839 0
-0.0813793 0.127706 0
-0.0956332 0.127423 0
-0.109919 0.124834 0
-0.124107 0.119726 0
-0.138048 0.11189 0
-0.151567 0.101154 0
-0.164462 0.0874112 0
-0.176503 0.0706344 0
-0.187431 0.0509009 0
-0.196962 0.0284086 0
-0.204785 0.00349367 0
-0.210573 -0.0233554 0
-0.213983 -0.0517045 0
-0.214596 -0.0808385 0
-0.21187 -0.109772 0
-0.205155 -0.137186 0
-0.193749 -0.161321 0
-0.177036 -0.179888 0
-0.15472 -0.190078 0
-0.127164 -0.188814 0
-0.0957979 -0.173414 0
-0.0634664 -0.142895 0
-0.0343675 -0.0998939 0
-0.0130591 -0.0522904 0
-0.00244701 -0.0117818 0
-0.00151336 0.0305169 0
-0.00662605 0.0723568 0
-0.0151687 0.0995809 0
-0.0258723 0.116919 0
-0.037873 0.12801 0
-0.050634 0.135148 0
-0.0638394 0.139521 0
-0.0773005 0.141586 0
-0.0908904 0.141386 0
-0.104504 0.13877 0
-0.118037 0.133511 0
-0.131372 0.12538 0
-0.144374 0.114185 0
-0.15689 0.0997917 0
-0.168746 0.0821509 0
-0.179748 0.061315 0
-0.189679 0.037456 0
-0.198291 0.0108812 0
-0.205297 -0.0179491 0
-0.210399 -0.0485987 0
-0.213224 -0.0805057 0
-0.213211 -0.112844 0
-0.2096 -0.144441 0
-0.201463 -0.173609 0
-0.187825 -0.197951 0
-0.167906 -0.21425 0
-0.141519 -0.218586 0
-0.109605 -0.206922 0
-0.0748152 -0.176509 0
-0.0417867 -0.128407 0
-0.0163699 -0.0705022 0
-0.00316162 -0.0173904 0
-0.0013109 0.0333412 0
-0.0058528 0.0791871 0
-0.0136121 0.109052 0
-0.0234753 0.128014 0
-0.0346131 0.140053 0
-0.0464762 0.147729 0
-0.0587296 0.152399 0
-0.0711754 0.154615 0
-0.083691 0.154463 0
-0.0961877 0.151804 0
-0.108587 0.146409 0
-0.120809 0.138038 0
-0.132764 0.126484 0
-0.144356 0.1116 0
-0.15548 0.0933219 0
-0.16602 0.0716862 0
-0.175847 0.0468432 0
-0.184807 0.0190658 0
-0.192694 -0.0112409 0
-0.199284 -0.0436152 0
-0.204269 -0.0776782 0
-0.207122 -0.112831 0
-0.207028 -0.148158 0
-0.202878 -0.182179 0
-0.193348 -0.212549 0
-0.177136 -0.235783 0
-0.153391 -0.247185 0
-0.122366 -0.241262 0
-0.0862349 -0.213089 0
-0.0497972 -0.161293 0
-0.0201561 -0.0926741 0
-0.00401541 -0.0245674 0
-0.0010697 0.0357218 0
-0.00491654 0.0851953 0
-0.0116958 0.117583 0
-0.0204812 0.138132 0
-0.0304914 0.151083 0
-0.0411657 0.159236 0
-0.0521472 0.164126 0
-0.0632256 0.166412 0
-0.074281 0.166237 0
-0.0852416 0.163487 0
-0.0960579 0.157941 0
-0.106689 0.149359 0
-0.117097 0.137528 0
-0.127245 0.122298 0
-0.137102 0.103604 0
-0.146637 0.0814794 0
-0.155824 0.0560637 0
-0.164621 0.0276018 0
-0.172951 -0.003559 0
-0.180683 -0.0369757 0
-0.187594 -0.0724212 0
-0.193249 -0.10958 0
-0.196855 -0.147897 0
-0.197185 -0.18626 0
-0.19262 -0.222564 0
-0.181338 -0.253262 0
-0.16175 -0.27304 0
-0.13323 -0.274953 0
-0.0971753 -0.251584 0
-0.0581759 -0.198236 0
-0.0243976 -0.119151 0
-0.00502305 -0.0336059 0
-0.00080756 0.037599 0
-0.00388107 0.0902384 0
-0.00953896 0.124977 0
-0.0170596 0.147044 0
-0.025721 0.160843 0
-0.0349553 0.169385 0
-0.0443838 0.174387 0
-0.0537833 0.176629 0
-0.0630373 0.176329 0
-0.0720931 0.173411 0
-0.0809337 0.167674 0
-0.0895616 0.158885 0
-0.0979915 0.146839 0
-0.10625 0.131393 0
-0.114376 0.112491 0
-0.122426 0.0901783 0
-0.130475 0.0645998 0
-0.138602 0.0359899 0
-0.146869 0.00465008 0
-0.155265 -0.0290574 0
-0.16369 -0.0650031 0
-0.171851 -0.103182 0
-0.17905 -0.143491 0
-0.184048 -0.185337 0
-0.185019 -0.227081 0
-0.179677 -0.265369 0
-0.165671 -0.294527 0
-0.141355 -0.306301 0
-0.107037 -0.290608 0
-0.0666523 -0.238597 0
-0.0290647 -0.150156 0
-0.00620523 -0.0448342 0
-0.000545898 0.0389525 0
-0.00282525 0.0942378 0
-0.00729187 0.131102 0
-0.0134267 0.154575 0
-0.0205744 0.169121 0
-0.0281674 0.177934 0
-0.0358096 0.182909 0
-0.0432691 0.184966 0
-0.0504369 0.184414 0
-0.0572842 0.18123 0
-0.0638313 0.175243 0
-0.0701283 0.166241 0
-0.0762459 0.154031 0
-0.0822726 0.138486 0
-0.0883174 0.119569 0
-0.0945138 0.0973474 0
-0.101024 0.0719893 0
-0.108036 0.0437394 0
-0.11574 0.0128719 0
-0.124268 -0.0203554 0
-0.133669 -0.055879 0
-0.143822 -0.0939926 0
-0.154207 -0.135096 0
-0.163688 -0.179252 0
-0.170376 -0.225508 0
-0.171641 -0.271019 0
-0.164421 -0.310102 0
-0.145964 -0.333498 0
-0.115208 -0.328485 0
-0.0749247 -0.281387 0
-0.0341292 -0.185749 0
-0.00759528 -0.0586347 0
-0.000309159 0.0398075 0
-0.00184169 0.0971946 0
-0.0051345 0.135905 0
-0.00984225 0.160615 0
-0.015377 0.175764 0
-0.0211817 0.184689 0
-0.0268548 0.189469 0
-0.0321652 0.191176 0
-0.0370203 0.190227 0
-0.0414232 0.186667 0
-0.0454378 0.180368 0
-0.049167 0.171142 0
-0.0527407 0.15882 0
-0.0563107 0.143294 0
-0.0600512 0.124547 0
-0.0641619 0.102676 0
-0.0688735 0.077882 0
-0.0744518 0.0504368 0
-0.0811885 0.0206158 0
-0.0893586 -0.0114009 0
-0.0991584 -0.0456328 0
-0.110638 -0.0826058 0
-0.123521 -0.123216 0
-0.136907 -0.168264 0
-0.149026 -0.21769 0
-0.157102 -0.269497 0
-0.157505 -0.318441 0
-0.146385 -0.354736 0
-0.121082 -0.363308 0
-0.0826699 -0.325258 0
-0.0395737 -0.225769 0
-0.00924602 -0.075476 0
-0.000125018 0.0402417 0
-0.00103754 0.0992055 0
-0.00327724 0.139426 0
-0.00660866 0.165132 0
-0.0105013 0.180674 0
-0.0144238 0.189507 0
-0.0179893 0.19389 0
-0.020986 0.195062 0
-0.0233525 0.193562 0
-0.0251347 0.189517 0
-0.0264488 0.182847 0
-0.0274554 0.173399 0
-0.0283467 0.161028 0
-0.0293395 0.145648 0
-0.0306714 0.127265 0
-0.0326016 0.105999 0
-0.0354132 0.0820823 0
-0.039419 0.0558205 0
-0.0449644 0.0275143 0
-0.0524156 -0.00267807 0
-0.062084 -0.0348876 0
-0.0741742 -0.0697808 0
-0.0886683 -0.108665 0
-0.10502 -0.153077 0
-0.121788 -0.20399 0
-0.136319 -0.260589 0
-0.144677 -0.318588 0
-0.142052 -0.368334 0
-0.124055 -0.39301 0
-0.0895313 -0.368492 0
-0.0453889 -0.269774 0
-0.0112328 -0.0959548 0
-2.63329e-05 0.0403931 0
-0.000540151 0.10048 0
-0.0019677 0.141819 0
-0.00407443 0.168178 0
-0.00636437 0.183811 0
-0.00835331 0.192281 0
-0.00970234 0.19603 0
-0.0102484 0.196465 0
-0.00998326 0.19426 0
-0.0090119 0.18963 0
-0.00751173 0.182548 0
-0.0057063 0.172899 0
-0.00385275 0.160566 0
-0.00223331 0.145484 0
-0.00114859 0.127677 0
-0.000913781 0.107283 0
-0.00185587 0.0845523 0
-0.00431239 0.0598127 0
-0.00863436 0.0333895 0
-0.0151924 0.00545594 0
-0.0243464 -0.0241992 0
-0.0364008 -0.0563247 0
-0.0515577 -0.0924699 0
-0.0696814 -0.134796 0
-0.0898581 -0.185327 0
-0.109888 -0.244692 0
-0.125911 -0.310104 0
-0.132468 -0.372887 0
-0.123475 -0.415447 0
-0.0950702 -0.408984 0
-0.0515454 -0.31695 0
-0.0136468 -0.120834 0
-5.66186e-05 0.040476 0
-0.000511845 0.101367 0
-0.00150786 0.143356 0
-0.00264449 0.169884 0
-0.00342606 0.185176 0
-0.00345057 0.192929 0
-0.00247782 0.195758 0
-0.000436251 0.195241 0
0.00259739 0.192185 0
0.00643903 0.186891 0
0.0108365 0.179388 0
0.0154934 0.169596 0
0.0200847 0.157424 0
0.0242655 0.142825 0
0.0276781 0.125838 0
0.0299597 0.106606 0
0.0307526 0.0853788 0
0.0297147 0.0624806 0
0.0265266 0.0382317 0
0.0208888 0.0128096 0
0.0124863 -0.0139963 0
0.000986184 -0.042973 0
-0.0139622 -0.0757163 0
-0.0325843 -0.114804 0
-0.0546071 -0.163119 0
-0.0786112 -0.222865 0
-0.101309 -0.293209 0
-0.117118 -0.367417 0
-0.118536 -0.428492 0
-0.0986612 -0.44422 0
-0.0579217 -0.365978 0
-0.0165725 -0.151054 0
-0.000282212 0.0408148 0
-0.00118072 0.102381 0
-0.00228634 0.144443 0
-0.00279753 0.170445 0
-0.00218635 0.184785 0
-0.000193171 0.191351 0
0.0032508 0.192919 0
0.00805704 0.191232 0
0.0140124 0.187205 0
0.0208319 0.18121 0
0.0281825 0.173322 0
0.0356986 0.16349 0
0.0429946 0.151643 0
0.0496722 0.137748 0
0.055329 0.121846 0
0.059569 0.104076 0
0.0620169 0.0846677 0
0.0623347 0.063912 0
0.0602337 0.0420895 0
0.0554752 0.019348 0
0.0478387 -0.00449584 0
0.0370863 -0.0302209 0
0.0229337 -0.0593675 0
0.00496143 -0.0945584 0
-0.0172458 -0.139135 0
-0.0432863 -0.196805 0
-0.0709684 -0.268888 0
-0.0953417 -0.351555 0
-0.108119 -0.430157 0
-0.0993141 -0.471235 0
-0.0641693 -0.414847 0
-0.0200384 -0.187665 0
-0.000816398 0.0419134 0
-0.00289568 0.104261 0
-0.00482663 0.1456 0
-0.0051018 0.170074 0
-0.00316742 0.182611 0
0.000981258 0.187384 0
0.00711819 0.187306 0
0.0149127 0.184245 0
0.0239768 0.179173 0
0.033904 0.172496 0
0.0442772 0.164312 0
0.0546708 0.15459 0
0.0646533 0.143265 0
0.0737921 0.130309 0
0.0816607 0.115759 0
0.087851 0.0997326 0
0.0919899 0.0824241 0
0.0937567 0.0640709 0
0.0928981 0.0448901 0
0.0892291 0.0249749 0
0.0826075 0.00413551 0
0.0728599 -0.0183523 0
0.0597294 -0.0439531 0
0.0428291 -0.0751002 0
0.0216489 -0.115206 0
-0.00437599 -0.168669 0
-0.0347853 -0.238933 0
-0.066177 -0.325745 0
-0.0905789 -0.418787 0
-0.0954031 -0.486586 0
-0.0694838 -0.46056 0
-0.0239315 -0.231634 0
-0.00186267 0.0445925 0
-0.00620895 0.108007 0
-0.00982968 0.147405 0
-0.0101874 0.168902 0
-0.00683381 0.178495 0
-0.000222632 0.18074 0
0.00896839 0.178622 0
0.0200777 0.174025 0
0.0325077 0.167899 0
0.0457225 0.160628 0
0.0592306 0.152299 0
0.0725645 0.142875 0
0.0852705 0.132291 0
0.0969071 0.120508 0
0.10705 0.107548 0
0.115305 0.0934983 0
0.12132 0.0785038 0
0.124808 0.0627365 0
0.125553 0.0463386 0
0.123411 0.029337 0
0.118289 0.0115174 0
0.110071 -0.00776877 0
0.0985158 -0.029851 0
0.0832114 -0.0569977 0
0.0635456 -0.092462 0
0.0386714 -0.140513 0
0.00782371 -0.205832 0
-0.0281867 -0.291445 0
-0.0635037 -0.393369 0
-0.0842906 -0.486393 0
-0.0722383 -0.498725 0
-0.0278473 -0.283413 0
-0.00378002 0.0502352 0
-0.0119535 0.114884 0
-0.018107 0.150303 0
-0.0185163 0.166771 0
-0.0132439 0.171999 0
-0.00353144 0.170912 0
0.00931901 0.166408 0
0.0242432 0.160205 0
0.0404195 0.153113 0
0.0572012 0.145417 0
0.0740502 0.137152 0
0.090488 0.12825 0
0.10607 0.118628 0
0.120377 0.108229 0
0.133014 0.0970475 0
0.143626 0.0851331 0
0.151903 0.0725761 0
0.157599 0.0594801 0
0.160536 0.0459136 0
0.1606 0.0318395 0
0.157719 0.0170184 0
0.151801 0.000866561 0
0.142605 -0.0177358 0
0.129674 -0.0408769 0
0.112257 -0.0714999 0
0.0891977 -0.113542 0
0.0590364 -0.171794 0
0.0207688 -0.251205 0
-0.0234994 -0.354024 0
-0.0618464 -0.466604 0
-0.0693969 -0.523015 0
-0.0308251 -0.342086 0
-0.00713738 0.0611526 0
-0.0211361 0.126139 0
-0.0300394 0.154105 0
-0.0294783 0.162818 0
-0.0209171 0.16212 0
-0.00683388 0.156996 0
0.0107119 0.149928 0
0.0302511 0.142222 0
0.050782 0.134389 0
0.0716061 0.126536 0
0.0921907 0.1186 0
0.11209 0.110465 0
0.130907 0.102015 0
0.148274 0.0931681 0
0.163856 0.0838885 0
0.177353 0.074183 0
0.188513 0.0640892 0
0.197134 0.0536496 0
0.203071 0.042871 0
0.206219 0.0316698 0
0.206493 0.0197953 0
0.203774 0.00672728 0
0.197837 -0.0084648 0
0.188171 -0.0275503 0
0.17382 -0.0530581 0
0.153284 -0.088389 0
0.124458 -0.13796 0
0.0849937 -0.207307 0
0.0339588 -0.302618 0
-0.0219044 -0.423799 0
-0.0555527 -0.524622 0
-0.0308466 -0.403757 0
-0.0125451 0.0808351 0
-0.0338954 0.141805 0
-0.0433179 0.156764 0
-0.038339 0.154618 0
-0.0233489 0.146768 0
-0.00245283 0.137369 0
0.021582 0.127974 0
0.0470465 0.119172 0
0.072929 0.111026 0
0.0985939 0.10341 0
0.123593 0.0961425 0
0.14757 0.0890464 0
0.170214 0.0819728 0
0.191243 0.0748137 0
0.210401 0.0675033 0
0.227459 0.0600124 0
0.242224 0.0523353 0
0.254538 0.0444683 0
0.264275 0.0363784 0
0.27133 0.02796 0
0.275583 0.0189776 0
0.276862 0.00898473 0
0.274871 -0.00279505 0
0.269019 -0.0177018 0
0.258177 -0.037713 0
0.240488 -0.0655094 0
0.213245 -0.10477 0
0.172981 -0.160767 0
0.116365 -0.241507 0
0.0443075 -0.35699 0
-0.021306 -0.492169 0
-0.023809 -0.458413 0
-0.0191497 0.11253 0
-0.0443991 0.15671 0