# vtk DataFile Version 2.0
Lid-driven cavity
ASCII
DATASET STRUCTURED_POINTS
DIMENSIONS 32 32 1
ORIGIN 0.015625 0.015625 0
SPACING 0.03125 0.03125 1
POINT_DATA 1024
SCALARS pressure double 1
LOOKUP_TABLE default
24.3279
24.2141
24.0274
23.8317
23.6642
23.5426
23.475
23.4666
23.5232
23.6523
23.8623
24.1613
24.5544
25.0422
25.6184
26.2685
26.9685
27.6868
28.382
29.0078
29.518
29.8732
30.0477
30.0349
29.8499
29.5289
29.1235
28.6938
28.3014
28.0014
27.8359
27.8174
24.4416
24.3233
24.1696
24.0163
23.8866
23.7933
23.744
23.7441
23.8002
23.9194
24.11
24.3794
24.7325
25.1703
25.6878
26.2721
26.9023
27.5503
28.1787
28.7453
29.208
29.531
29.6918
29.6855
29.5276
29.2521
28.9063
28.5424
28.2116
27.9576
27.8133
27.7989
24.6348
24.4676
24.3084
24.1702
24.0608
23.9843
23.9439
23.9436
23.9892
24.0883
24.2497
24.4819
24.7915
25.1815
25.6495
26.1856
26.7714
27.3809
27.9782
28.5216
28.9686
29.2831
29.4413
29.4379
29.288
29.0258
28.6979
28.3553
28.0441
27.8024
27.6587
27.6355
24.8351
24.5998
24.4146
24.2732
24.1688
24.0958
24.052
24.0386
24.0607
24.1267
24.2467
24.4316
24.6911
25.0318
25.455
25.9546
26.5152
27.1112
27.7068
28.2584
28.7208
29.0534
29.2281
29.2359
29.0902
28.825
28.4888
28.1343
27.809
27.5492
27.3819
27.3279
24.9788
24.6696
24.4487
24.2923
24.1796
24.0962
24.034
23.9918
23.9742
23.9905
24.0533
24.1769
24.3752
24.6597
25.0366
25.5046
26.0521
26.6534
27.2724
27.8633
28.3752
28.7604
28.9825
29.0248
28.8954
28.6266
28.269
27.8802
27.5127
27.207
26.9916
26.8872
25.0068
24.6243
24.3644
24.185
24.0525
23.9439
23.8465
23.7569
23.6796
23.6257
23.6107
23.6533
23.7727
23.9863
24.3066
24.7384
25.2758
25.894
26.5583
27.2201
27.8218
28.3053
28.6213
28.7401
28.6587
28.4035
28.0255
27.5889
27.1564
26.7786
26.4909
26.3187
24.8621
24.4104
24.1107
23.9025
23.7392
23.5901
23.4386
23.2799
23.1191
22.9691
22.8493
22.7833
22.7967
22.914
23.1556
23.534
24.0512
24.6883
25.4139
26.1783
26.9166
27.5573
28.0333
28.2939
28.3169
28.1153
27.7362
27.2502
26.7352
26.2597
25.8746
25.6163
24.489
23.974
23.6352
23.3926
23.1871
22.981
22.7544
22.5015
22.2282
21.9498
21.6897
21.4772
21.3451
21.3266
21.4517
21.7433
22.2134
22.8562
23.6493
24.5443
25.4702
26.3403
27.0635
27.5595
27.7752
27.6982
27.3627
26.8432
26.2368
25.64
25.1305
24.7631
23.8344
23.2636
22.8864
22.6033
22.3431
22.0617
21.7361
21.3597
20.9391
20.4921
20.0462
19.6368
19.3048
19.0938
19.0459
19.1972
19.5729
20.1873
21.0371
22.0807
23.2438
24.4241
25.5019
26.3575
26.8924
27.052
26.842
26.3319
25.6398
24.9015
24.2372
23.7326
22.8502
22.2324
21.8172
21.4864
21.1575
20.7802
20.3285
19.7948
19.1861
18.522
17.8339
17.1636
16.5611
16.0822
15.7839
15.7193
15.9306
16.4554
17.3267
18.5175
19.9563
21.5277
23.0813
24.4491
25.4712
26.0286
26.0755
25.6582
24.9111
24.0202
23.1685
22.4913
21.4969
20.8423
20.3891
20.0023
19.5888
19.0928
18.4851
17.7564
16.913
15.9757
14.9793
13.9716
13.0128
12.1726
11.526
11.1476
11.1032
11.4468
12.2724
13.5798
15.309
17.3386
19.4897
21.5406
23.2551
24.4251
24.9208
24.7355
24.003
22.9655
21.8944
21.0017
19.7475
19.067
18.5756
18.1235
17.6089
16.9703
16.1751
15.2112
14.0833
12.812
11.4345
10.0045
8.59244
7.28354
6.17383
5.3634
4.94685
5.00151
5.67609
7.03093
9.0284
11.5519
14.4021
17.3056
19.9404
21.9849
23.1871
23.4426
22.85
21.7018
20.3844
19.2257
17.5905
16.8961
16.3663
15.84
15.2078
14.4035
13.3901
12.1518
10.6904
9.02473
7.19295
5.25387
3.28818
1.39759
-0.29879
-1.67158
-2.59256
-2.95034
-2.56395
-1.27178
0.924074
3.92721
7.5337
11.4295
15.2078
18.416
20.6407
21.6223
21.3673
20.1898
18.6124
17.131
15.0325
14.3367
13.7692
13.1613
12.3979
11.4082
10.1507
8.60471
6.7673
4.65425
2.30307
-0.22365
-2.83568
-5.41475
-7.81741
-9.88233
-11.4429
-12.3455
-12.4005
-11.3181
-9.04572
-5.64124
-1.29108
3.67297
8.77447
13.4275
17.0253
19.0893
19.4527
18.3905
16.5634
14.6988
12.0993
11.4149
10.8121
10.1187
9.21586
8.02858
6.51043
4.63482
2.39278
-0.204786
-3.12259
-6.29587
-9.62624
-12.9798
-16.1889
-19.0596
-21.3839
-22.9598
-23.5977
-22.8967
-20.7164
-17.0583
-12.065
-6.05302
0.46436
6.78685
12.1013
15.6511
16.9962
16.2723
14.244
11.9352
8.83447
8.17374
7.54101
6.76411
5.72233
4.33694
2.55619
0.346713
-2.30771
-5.40256
-8.90643
-12.7542
-16.8411
-21.0194
-25.0994
-28.8555
-32.0398
-34.4028
-35.7205
-35.5753
-33.6858
-29.982
-24.5383
-17.6163
-9.71685
-1.60995
5.70179
11.1453
13.9014
13.825
11.6972
8.88714
5.29646
4.67075
4.01701
3.1668
1.99875
0.430655
-1.59511
-4.11946
-7.16692
-10.7406
-14.8145
-19.3247
-24.1621
-29.1679
-34.1328
-38.8034
-42.8954
-46.1146
-48.1866
-48.7274
-47.3255
-43.8193
-38.1944
-30.6183
-21.5194
-11.6674
-2.20013
5.49163
10.1183
11.0817
9.02342
5.66445
1.5531
0.971719
0.310476
-0.59243
-1.85849
-3.57408
-5.80359
-8.59651
-11.9866
-15.9857
-20.5741
-25.6907
-31.2239
-37.0062
-42.8127
-48.3669
-53.3538
-57.4405
-60.3044
-61.5969
-60.8406
-57.7733
-52.2774
-44.3951
-34.4216
-23.0388
-11.4276
-1.24656
5.6913
8.15275
6.41076
2.47091
-2.32531
-2.85626
-3.50637
-4.42873
-5.74592
-7.55063
-9.91617
-12.9022
-16.5527
-20.889
-25.8984
-31.5233
-37.6514
-44.1085
-50.658
-57.0055
-62.8129
-67.718
-71.3608
-73.4032
-73.3769
-70.9457
-65.8784
-58.0771
-47.6546
-35.1133
-21.556
-8.80372
0.815903
5.2722
4.17774
-0.349869
-6.27425
-6.75335
-7.36801
-8.26162
-9.56137
-11.3712
-13.7773
-16.8522
-20.6519
-25.2072
-30.5129
-36.5149
-43.1004
-50.0911
-57.2412
-64.2439
-70.745
-76.3637
-80.7181
-83.4505
-84.1575
-82.4733
-78.0695
-70.7057
-60.2864
-47.0567
-31.9079
-16.67
-4.10166
2.86011
2.83615
-2.24477
-10.244
-10.6762
-11.2245
-12.0232
-13.212
-14.915
-17.2389
-20.2733
-24.0877
-28.7231
-34.1803
-40.4082
-47.2934
-54.654
-62.2378
-69.7295
-76.7649
-82.9529
-87.901
-91.2378
-92.6092
-91.6719
-88.0561
-81.3841
-71.3542
-57.9057
-41.596
-24.0807
-8.39206
1.59787
3.18061
-2.34508
-14.2096
-14.6082
-15.0501
-15.6652
-16.62
-18.075
-20.1685
-23.0131
-26.6941
-31.2616
-36.7206
-43.0199
-50.0449
-57.6098
-65.4581
-73.269
-80.6729
-87.274
-92.6767
-96.5079
-98.4307
-98.1484
-95.3051
-89.4238
-80.0152
-66.7008
-49.6132
-30.0472
-11.0909
2.51159
6.41064
0.689147
-18.1831
-18.571
-18.852
-19.1637
-19.726
-20.7606
-22.4534
-24.9474
-28.3449
-32.7021
-38.0249
-44.2613
-51.2908
-58.9215
-66.8906
-74.8726
-82.495
-89.3615
-95.078
-99.2757
-101.621
-101.839
-99.6155
-94.4428
-85.6698
-72.6185
-54.9485
-33.4256
-10.9387
7.05057
14.2832
8.88254
-22.2321
-22.642
-22.6799
-22.522
-22.4877
-22.8972
-24.0037
-25.9899
-28.9727
-33.0098
-38.101
-44.1838
-51.1272
-58.7294
-66.7191
-74.765
-82.4922
-89.5047
-95.411
-99.8464
-102.483
-103.022
-101.136
-96.381
-88.0187
-75.0592
-56.6902
-33.0059
-6.41702
17.1407
29.28
25.2146
-26.514
-26.9816
-26.6386
-25.7711
-24.876
-24.4232
-24.7549
-26.0889
-28.5505
-32.1888
-36.9878
-42.8664
-49.6768
-57.2021
-65.1605
-73.2133
-80.9821
-88.0697
-94.0847
-98.6612
-101.469
-102.19
-100.416
-95.6266
-87.0513
-73.6493
-54.0746
-27.5842
4.18692
35.1884
54.7586
53.9347
-31.3509
-31.8882
-30.9088
-28.9687
-26.8662
-25.2786
-24.6496
-25.2132
-27.0857
-30.2915
-34.7842
-40.4545
-47.1301
-54.5756
-62.4955
-70.5426
-78.3332
-85.4665
-91.5454
-96.1937
-99.0627
-99.8177
-97.9563
-92.7949
-83.4086
-68.4726
-46.4641
-15.9811
22.7121
64.011
95.0385
100.907
-37.4018
-37.9057
-35.7816
-32.194
-28.426
-25.4028
-23.6471
-23.3685
-24.6383
-27.4302
-31.6511
-37.1526
-43.7317
-51.1306
-59.0385
-67.0985
-74.9204
-82.0961
-88.2172
-92.8865
-95.7202
-96.3329
-94.1849
-88.305
-77.4968
-60.0601
-33.8908
2.98987
51.0756
106.663
155.347
173.975
-46.0795
-46.0361
-41.695
-35.5165
-29.4789
-24.7125
-21.7148
-20.5896
-21.3076
-23.7595
-27.7874
-33.1943
-39.7424
-47.1498
-55.0896
-63.1949
-71.0676
-78.2906
-84.4383
-89.083
-91.7884
-92.0852
-89.4069
-82.4304
-69.5505
-48.5654
-16.6162
29.3203
91.0809
166.098
241.472
283.36
-60.5926
-58.0694
-49.1558
-38.8235
-29.7646
-23.0024
-18.7508
-16.8712
-17.1667
-19.4094
-23.362
-28.7742
-35.3724
-42.8511
-50.869
-59.0497
-66.9875
-74.2547
-80.4059
-84.9757
-87.4631
-87.2942
-83.7588
-75.2977
-59.6913
-34.1211
5.18822
62.6455
142.258
244.633
358.724
442.043
-88.5571
-76.5549
-57.9372
-41.1127
-28.3707
-19.6043
-14.293
-11.9293
-12.0643
-14.3228
-18.3816
-23.9394
-30.6923
-38.317
-46.4623
-54.7461
-62.7579
-70.0603
-76.1873
-80.6329
-82.8216
-82.0532
-77.4114
-67.0667
-48.2186
-17.3783
30.2488
100.83
201.697
339.808
512.505
665.52
-147.533
-100.883
-63.4327
-38.1789
-22.0706
-12.2503
-6.87294
-4.82256
-5.39509
-8.10799
-12.5918
-18.5257
-25.5987
-33.4871
-41.8422
-50.2857
-58.4086
-65.7691
-71.8847
-76.2114
-78.101
-76.7222
-70.9311
-58.5692
-36.5629
-0.856482
54.2601
136.85
258.82
439.284
706.272
1028.11
-293.083
-108.378
-43.6871
-17.0547
-4.08496
2.55951
5.41558
5.54768
3.51163
-0.332884
-5.70331
-12.3391
-19.9721
-28.3104
-37.0296
-45.7701
-54.1357
-61.6903
-67.9469
-72.3419
-74.1832
-72.5516
-66.1107
-52.6449
-29.0524
8.96191
67.5383
155.902
289.735
502.282
883.145
1666.37
VECTORS velocity double
8.21612e-05 -8.21612e-05 0
0.000166324 -2.00115e-06 0
3.00106e-05 0.000138314 0
-0.000374787 0.000266484 0
-0.00100613 0.000364859 0
-0.00180763 0.000436642 0
-0.00273366 0.000489386 0
-0.00375139 0.000528345 0
-0.00483458 0.000554844 0
-0.00595629 0.000566859 0
-0.00708345 0.000560303 0
-0.00817409 0.00053034 0
-0.00917693 0.000472499 0
-0.0100331 0.000383625 0
-0.0106794 0.000262704 0
-0.0110537 0.000111583 0
-0.0111007 -6.45479e-05 0
-0.010779 -0.000257167 0
-0.0100695 -0.000452313 0
-0.0089849 -0.000632298 0
-0.00757507 -0.000777536 0
-0.00592838 -0.000869154 0
-0.00416701 -0.000892217 0
-0.0024357 -0.000839087 0
-0.0008845 -0.000712116 0
0.000352438 -0.000524823 0
0.00117844 -0.000301178 0
0.00155108 -7.14635e-05 0
0.00149312 0.000129419 0
0.0011009 0.000262802 0
0.00055615 0.00028195 0
0.0001371 0.000137099 0
-1.52809e-06 -0.000162794 0
-0.000252735 0.000245677 0
-0.00106097 0.00083518 0
-0.00246046 0.00137391 0
-0.00436967 0.00179799 0
-0.00667849 0.00211383 0
-0.00928504 0.00234478 0
-0.0121016 0.0025073 0
-0.0150469 0.00260431 0
-0.0180347 0.00262691 0
-0.0209665 0.00255918 0
-0.0237276 0.00238326 0
-0.026189 0.00208385 0
-0.0282125 0.0016519 0
-0.0296594 0.00108765 0
-0.0304016 0.000403087 0
-0.0303341 -0.000376557 0
-0.0293892 -0.0012117 0
-0.0275513 -0.00204523 0
-0.024868 -0.00280723 0
-0.0214589 -0.00342155 0
-0.0175157 -0.00381509 0
-0.013294 -0.00392927 0
-0.00909505 -0.00373231 0
-0.00523526 -0.00322988 0
-0.00200805 -0.0024712 0
0.000359317 -0.00154817 0
0.00174813 -0.000585922 0
0.00217931 0.000270655 0
0.00182937 0.000863722 0
0.00103405 0.0010211 0
0.000288426 0.000562625 0
-0.000181737 2.04701e-05 0
-0.00100589 0.00113777 0
-0.00274013 0.00248556 0
-0.00530848 0.00369137 0
-0.00856685 0.00464812 0
-0.0123608 0.00536642 0
-0.0165478 0.00588582 0
-0.0209975 0.00623254 0
-0.0255807 0.00640742 0
-0.0301587 0.00638968 0
-0.0345773 0.00614674 0
-0.0386652 0.00564474 0
-0.042239 0.00485763 0
-0.0451119 0.00377446 0
-0.0471049 0.002405 0
-0.0480608 0.000783848 0
-0.0478586 -0.00102706 0
-0.0464283 -0.00293632 0
-0.0437642 -0.00482269 0
-0.0399361 -0.00654108 0
-0.0350982 -0.00793472 0
-0.0294912 -0.00885223 0
-0.0234358 -0.00916914 0
-0.0173153 -0.00881198 0
-0.011544 -0.00778122 0
-0.00652341 -0.0061677 0
-0.00258619 -0.00415627 0
6.08105e-05 -0.00201364 0
0.00138829 -6.02791e-05 0
0.00157608 0.0013568 0
0.00101507 0.00188436 0
0.000304505 0.00115556 0
-0.000399301 0.000601507 0
-0.00190669 0.00288827 0
-0.00470894 0.00527155 0
-0.00855835 0.00732313 0
-0.0132191 0.0089355 0
-0.0184863 0.0101402 0
-0.0241825 0.0109954 0
-0.0301435 0.0115336 0
-0.0362029 0.0117489 0
-0.0421818 0.0116053 0
-0.0478849 0.0110528 0
-0.0531023 0.010044 0
-0.0576173 0.00854716 0
-0.0612164 0.00655688 0
-0.0637022 0.00410139 0
-0.0649063 0.00124748 0
-0.0647025 -0.00189667 0
-0.0630182 -0.00518123 0
-0.0598447 -0.00841545 0
-0.0552489 -0.0113721 0
-0.0493861 -0.0138044 0
-0.0425064 -0.0154693 0
-0.0349545 -0.0161594 0
-0.0271574 -0.0157393 0
-0.0195983 -0.0141843 0
-0.0127706 -0.011613 0
-0.00711539 -0.00830341 0
-0.00294731 -0.00468158 0
-0.00038508 -0.00128205 0
0.000697979 0.00130771 0
0.000692896 0.00249954 0
0.000241885 0.00170195 0
-0.000631185 0.00163199 0
-0.00286721 0.0056012 0
-0.00679797 0.00929163 0
-0.0119729 0.0123274 0
-0.0180465 0.0146655 0
-0.0247577 0.0163886 0
-0.031897 0.0175824 0
-0.0392744 0.0182849 0
-0.046698 0.0184806 0
-0.0539624 0.0181169 0
-0.0608465 0.0171284 0
-0.0671186 0.0154579 0
-0.0725443 0.0130739 0
-0.0768974 0.0099824 0
-0.0799712 0.00623546 0
-0.0815893 0.00193562 0
-0.0816163 -0.00276168 0
-0.0799639 -0.00765281 0
-0.0765995 -0.0124819 0
-0.0715611 -0.0169399 0
-0.0649759 -0.0206846 0
-0.0570742 -0.0233704 0
-0.0481973 -0.0246872 0
-0.0387951 -0.0244109 0
-0.0294067 -0.0224602 0
-0.0206195 -0.018952 0
-0.013 -0.0142391 0
-0.00700397 -0.00891006 0
-0.00288006 -0.0037397 0
-0.000596156 0.000398405 0
0.00019524 0.00262253 0
0.000140687 0.00208452 0
-0.00086568 0.00312886 0
-0.00383563 0.00931032 0
-0.00889444 0.0145721 0
-0.0153792 0.0187067 0
-0.0228297 0.0218103 0
-0.0309291 0.0240544 0
-0.0394396 0.0255664 0
-0.048154 0.0263928 0
-0.0568656 0.0265079 0
-0.0653555 0.0258438 0
-0.0733912 0.0243213 0
-0.0807313 0.0218772 0
-0.0871341 0.018483 0
-0.092366 0.0141583 0
-0.0962113 0.00897855 0
-0.0984797 0.00307912 0
-0.0990148 -0.00334316 0
-0.0976974 -0.0100411 0
-0.0944516 -0.0167038 0
-0.0892647 -0.0229433 0
-0.0822126 -0.0283185 0
-0.0734823 -0.0323685 0
-0.0633897 -0.0346586 0
-0.0523885 -0.0348429 0
-0.0410641 -0.0327409 0
-0.0301001 -0.0284224 0
-0.0202103 -0.022278 0
-0.0120316 -0.0150459 0
-0.00599576 -0.00776367 0
-0.00221401 -0.00164329 0
-0.000419101 0.00207792 0
1.96871e-05 0.00224489 0
-0.00109328 0.00508782 0
-0.00477032 0.0139983 0
-0.0109071 0.0210797 0
-0.0186345 0.0264113 0
-0.0273833 0.0303051 0
-0.0367859 0.0330615 0
-0.046583 0.0348669 0
-0.0565578 0.0357815 0
-0.0664992 0.0357721 0
-0.0761859 0.0347562 0
-0.085384 0.0326428 0
-0.0938513 0.0293632 0
-0.101343 0.0248914 0
-0.107618 0.0192574 0
-0.112448 0.0125543 0
-0.115619 0.00494241 0
-0.11694 -0.00334996 0
-0.11625 -0.0120417 0
-0.113418 -0.0207808 0
-0.108366 -0.0291057 0
-0.1011 -0.0364742 0
-0.0917433 -0.0422994 0
-0.0805638 -0.0459997 0
-0.0679961 -0.0470706 0
-0.0546522 -0.0451814 0
-0.0413055 -0.0402925 0
-0.0288307 -0.0327725 0
-0.0180873 -0.0234734 0
-0.00975308 -0.0137063 0
-0.00415088 -0.00508466 0
-0.00114027 0.000713775 0
-0.000117296 0.00214728 0
-0.00130403 0.00748513 0
-0.00563087 0.0196049 0
-0.0127518 0.0287308 0
-0.0216093 0.0353451 0
-0.0315382 0.0400489 0
-0.0421286 0.0433107 0
-0.0531069 0.045393 0
-0.0642544 0.0463777 0
-0.0753636 0.0462265 0
-0.0862191 0.0448439 0
-0.096593 0.0421271 0
-0.106246 0.0379996 0
-0.114933 0.0324334 0
-0.122403 0.0254613 0
-0.128408 0.0171847 0
-0.132704 0.00777806 0
-0.135058 -0.00250989 0
-0.135261 -0.0133689 0
-0.133122 -0.0244237 0
-0.128491 -0.0351468 0
-0.121293 -0.0448974 0
-0.111569 -0.0529567 0
-0.0995123 -0.0585784 0
-0.0855074 -0.0610646 0
-0.0701605 -0.0598782 0
-0.0543099 -0.0547931 0
-0.0389875 -0.0460691 0
-0.0253064 -0.0346014 0
-0.0142594 -0.0219595 0
-0.00646942 -0.0102237 0
-0.00199193 -0.00163531 0
-0.000274264 0.00175572 0
-0.00148717 0.0102763 0
-0.0063763 0.0260297 0
-0.0143466 0.0373972 0
-0.0241805 0.0453703 0
-0.0351334 0.0509054 0
-0.0467628 0.0546741 0
-0.0587873 0.0570324 0
-0.0709924 0.058091 0
-0.0831802 0.0578103 0
-0.0951469 0.0560824 0
-0.106675 0.0527904 0
-0.117531 0.047846 0
-0.127468 0.0412111 0
-0.136226 0.0329118 0
-0.143534 0.0230468 0
-0.149116 0.0117931 0
-0.152696 -0.000590098 0
-0.154017 -0.0137657 0
-0.152831 -0.0273505 0
-0.148917 -0.0407656 0
-0.142113 -0.0532807 0
-0.132362 -0.0640485 0
-0.119755 -0.0721497 0
-0.104588 -0.0766658 0
-0.0874136 -0.0767983 0
-0.0690893 -0.072048 0
-0.0507746 -0.0624512 0
-0.0338435 -0.0488314 0
-0.0196665 -0.0329534 0
-0.00927341 -0.0174128 0
-0.0030221 -0.005175 0
-0.000462908 0.00101855 0
-0.00163181 0.0133953 0
-0.00696632 0.0331343 0
-0.0156132 0.0469097 0
-0.0262314 0.05631 0
-0.0380149 0.0627019 0
-0.0504976 0.0669898 0
-0.063395 0.0696385 0
-0.0765004 0.0707955 0
-0.0896296 0.0704228 0
-0.102593 0.0684003 0
-0.115187 0.0645941 0
-0.127186 0.0588975 0
-0.138344 0.0512545 0
-0.148392 0.0416741 0
-0.15704 0.0302411 0
-0.163985 0.0171249 0
-0.168913 0.00258734 0
-0.171523 -0.0130135 0
-0.17152 -0.0292906 0
-0.168622 -0.0456379 0
-0.16258 -0.0612545 0
-0.153226 -0.0751796 0
-0.140525 -0.0863265 0
-0.124639 -0.0935427 0
-0.106011 -0.0957238 0
-0.0854484 -0.092009 0
-0.0641785 -0.0820749 0
-0.0438093 -0.066508 0
-0.0261279 -0.0471353 0
-0.0126867 -0.0270651 0
-0.00429283 -0.0101679 0
-0.000698116 -0.000142474 0
-0.00172775 0.0167549 0
-0.00736399 0.0407455 0
-0.0164806 0.057062 0
-0.0276559 0.0679513 0
-0.0400408 0.075229 0
-0.053152 0.0800566 0
-0.066704 0.0830211 0
-0.0805 0.0843143 0
-0.0943701 0.0839033 0
-0.108142 0.0816554 0
-0.121626 0.0774168 0
-0.134609 0.0710569 0
-0.14685 0.0624937 0
-0.158078 0.0517106 0
-0.167994 0.0387695 0
-0.176277 0.0238236 0
-0.182588 0.00712886 0
-0.186587 -0.0109465 0
-0.18795 -0.0299975 0
-0.186351 -0.0494283 0
-0.181461 -0.0683962 0
-0.172997 -0.0858552 0
-0.160775 -0.100574 0
-0.144783 -0.111174 0
-0.125287 -0.116217 0
-0.102964 -0.114402 0
-0.0790133 -0.104902 0
-0.05521 -0.0878535 0
-0.0337551 -0.0649261 0
-0.0168281 -0.0396425 0
-0.00587059 -0.0169419 0
-0.000996554 -0.00183714 0
-0.0017667 0.0202493 0
-0.00753919 0.0486598 0
-0.0168907 0.0676159 0
-0.0283659 0.0800478 0
-0.0410903 0.0882417 0
-0.0545672 0.0936321 0
-0.0685101 0.0969406 0
-0.0827303 0.0984109 0
-0.0970725 0.0980191 0
-0.111382 0.0956207 0
-0.125486 0.0910397 0
-0.139186 0.0841179 0
-0.152256 0.0747425 0
-0.164432 0.0628654 0
-0.17542 0.0485193 0
-0.184897 0.031834 0
-0.192519 0.0130512 0
-0.197925 -0.0074637 0
-0.200775 -0.0292676 0
-0.200717 -0.0518147 0
-0.19736 -0.074257 0
-0.190312 -0.0955059 0
-0.179229 -0.11423 0
-0.163887 -0.128852 0
-0.144315 -0.137606 0
-0.120958 -0.138694 0
-0.0948774 -0.130642 0
-0.0678974 -0.112897 0
-0.0425764 -0.0866583 0
-0.0217885 -0.055625 0
-0.00781821 -0.0258872 0
-0.00137521 -0.00420891 0
-0.00174332 0.0237593 0
-0.00747224 0.0566512 0
-0.0168045 0.0783083 0
-0.0283006 0.0923267 0
-0.0410766 0.101463 0
-0.0546243 0.107435 0
-0.0686531 0.111109 0
-0.0829794 0.112789 0
-0.0974609 0.112465 0
-0.111959 0.109983 0
-0.126323 0.105145 0
-0.140374 0.097765 0
-0.153907 0.0876972 0
-0.166681 0.0748602 0
-0.178423 0.0592548 0
-0.18883 0.0409831 0
-0.197572 0.0202657 0
-0.2043 -0.00254401 0
-0.208671 -0.0269665 0
-0.210323 -0.0525217 0
-0.20883 -0.0784001 0
-0.203712 -0.103529 0
-0.194463 -0.126539 0
-0.18063 -0.145718 0
-0.16194 -0.159002 0
-0.138516 -0.164078 0
-0.111142 -0.158711 0
-0.0815412 -0.141408 0
-0.0525067 -0.112503 0
-0.0276118 -0.0754632 0
-0.0101888 -0.0374424 0
-0.00185071 -0.00743482 0
-0.00165625 0.0271589 0
-0.00715731 0.0644816 0
-0.0162084 0.0888613 0
-0.027435 0.104496 0
-0.0399592 0.114594 0
-0.0532607 0.121154 0
-0.0670406 0.125199 0
-0.081116 0.127101 0
-0.0953543 0.126872 0
-0.109634 0.124354 0
-0.123827 0.11933 0
-0.137781 0.111586 0
-0.151321 0.100949 0
-0.164244 0.0873048 0
-0.176316 0.0706244 0
-0.187276 0.0509812 0
-0.196837 0.0285706 0
-0.204685 0.00372695 0
-0.21049 -0.0230615 0
-0.213906 -0.0513587 0
-0.214515 -0.0804478 0
-0.211774 -0.10934 0
-0.205035 -0.136714 0
-0.193603 -0.160809 0
-0.176866 -0.179338 0
-0.154534 -0.189499 0
-0.126975 -0.188224 0
-0.0956256 -0.172846 0
-0.06333 -0.142395 0
-0.0342802 -0.0995155 0
-0.0130202 -0.0520731 0
-0.0024385 -0.011724 0
-0.00150885 0.030324 0
-0.00660496 0.0719137 0
-0.0151189 0.0989942 0
-0.025788 0.116259 0
-0.0377543 0.127321 0
-0.0504852 0.134459 0
-0.0636676 0.138856 0
-0.0771145 0.140966 0
-0.0907 0.140831 0
-0.10432 0.138295 0
-0.117868 0.133129 0
-0.131227 0.1251 0
-0.144261 0.114009 0
-0.156814 0.0997201 0
-0.16871 0.0821777 0
-0.179753 0.061431 0
-0.189721 0.0376491 0
-0.198362 0.0111376 0
-0.205386 -0.0176435 0
-0.210492 -0.0482536 0
-0.213308 -0.0801283 0
-0.213272 -0.112437 0
-0.209626 -0.144002 0
-0.201446 -0.173133 0
-0.187764 -0.197433 0
-0.167807 -0.213693 0
-0.141393 -0.218002 0
-0.109472 -0.206338 0
-0.0746983 -0.175973 0
-0.0417053 -0.127981 0
-0.0163311 -0.0702422 0
-0.0031526 -0.0173151 0
-0.00130948 0.0331424 0
-0.00584356 0.0787255 0
-0.0135861 0.108439 0
-0.0234271 0.127325 0
-0.0345424 0.139337 0
-0.0463868 0.147018 0
-0.0586282 0.151721 0
-0.0710706 0.153991 0
-0.0835921 0.153913 0
-0.0961044 0.151344 0
-0.108529 0.146052 0
-0.120784 0.137791 0
-0.132779 0.126348 0
-0.144417 0.111572 0
-0.155588 0.0933933 0
-0.166174 0.0718443 0
-0.176043 0.0470723 0
-0.185035 0.0193483 0
-0.192944 -0.0109224 0
-0.199539 -0.0432726 0
-0.204513 -0.0773195 0
-0.207337 -0.112458 0
-0.207199 -0.147764 0
-0.202994 -0.181755 0
-0.193404 -0.212084 0
-0.177134 -0.235271 0
-0.153341 -0.246631 0
-0.122285 -0.240686 0
-0.0861472 -0.212536 0
-0.0497275 -0.16083 0
-0.0201196 -0.092375 0
-0.00400631 -0.024474 0
-0.0010714 0.0355232 0
-0.00491941 0.0847268 0
-0.0116943 0.116955 0
-0.0204704 0.137426 0
-0.0304702 0.150351 0
-0.0411371 0.158516 0
-0.0521172 0.163445 0
-0.063202 0.165794 0
-0.0742722 0.165702 0
-0.0852563 0.163052 0
-0.0961046 0.157617 0
-0.106775 0.149151 0
-0.117229 0.137437 0
-0.127427 0.122319 0
-0.137335 0.103725 0
-0.146921 0.0816843 0
-0.156152 0.0563325 0
-0.164985 0.0279131 0
-0.173338 -0.00322551 0
-0.181077 -0.0366357 0
-0.187976 -0.0720837 0
-0.1936 -0.109245 0
-0.197157 -0.147557 0
-0.197426 -0.185899 0
-0.19279 -0.222166 0
-0.181435 -0.252813 0
-0.16178 -0.272536 0
-0.133208 -0.274408 0
-0.0971246 -0.251035 0
-0.0581237 -0.197752 0
-0.0243659 -0.118819 0
-0.00501437 -0.0334947 0
-0.000812192 0.0374068 0
-0.00389562 0.0897746 0
-0.00956157 0.124348 0
-0.0170859 0.146333 0
-0.0257489 0.160107 0
-0.0349868 0.168665 0
-0.0444234 0.173712 0
-0.0538376 0.176025 0
-0.0631134 0.175817 0
-0.0721984 0.173006 0
-0.0810751 0.167387 0
-0.0897453 0.158722 0
-0.0982225 0.146798 0
-0.106531 0.131466 0
-0.114709 0.112664 0
-0.122809 0.0904314 0
-0.130902 0.0649099 0
-0.139066 0.0363317 0
-0.147356 0.00499963 0
-0.155759 -0.0287194 0
-0.164173 -0.0646867 0
-0.172304 -0.102887 0
-0.179457 -0.143206 0
-0.184392 -0.185045 0
-0.185288 -0.226759 0
-0.179866 -0.264998 0
-0.16578 -0.294093 0
-0.141395 -0.305808 0
-0.107028 -0.290085 0
-0.0666221 -0.238109 0
-0.0290404 -0.149802 0
-0.00619751 -0.0447066 0
-0.000553124 0.0387721 0
-0.00285049 0.0937901 0
-0.00733711 0.130485 0
-0.0134882 0.153871 0
-0.0206494 0.168393 0
-0.028256 0.177224 0
-0.035915 0.182249 0
-0.0433959 0.184383 0
-0.0505905 0.183929 0
-0.0574701 0.180859 0
-0.0640545 0.174996 0
-0.0703931 0.166122 0
-0.0765553 0.154037 0
-0.0826285 0.138608 0
-0.0887197 0.11979 0
-0.0949603 0.0976459 0
-0.10151 0.0723385 0
-0.108554 0.0441105 0
-0.11628 0.0132373 0
-0.124816 -0.0200182 0
-0.134208 -0.0555813 0
-0.144335 -0.0937336 0
-0.154678 -0.134864 0
-0.164103 -0.179027 0
-0.170719 -0.225264 0
-0.171904 -0.270731 0
-0.1646 -0.309749 0
-0.146064 -0.333074 0
-0.115242 -0.328008 0
-0.0749195 -0.280914 0
-0.0341142 -0.185383 0
-0.00758906 -0.0584932 0
-0.000318531 0.0396438 0
-0.00187619 0.0967735 0
-0.00520003 0.135312 0
-0.00993604 0.159931 0
-0.0154954 0.175053 0
-0.0213233 0.183998 0
-0.0270206 0.188831 0
-0.0323579 0.19062 0
-0.0372431 0.189772 0
-0.0416791 0.186331 0
-0.0457295 0.180159 0
-0.0494965 0.171064 0
-0.0531086 0.158869 0
-0.0567169 0.143458 0
-0.0604941 0.124809 0
-0.0646385 0.103012 0
-0.0693795 0.0782628 0
-0.0749808 0.0508314 0
-0.0817326 0.0209942 0
-0.0899082 -0.0110637 0
-0.0997018 -0.0453498 0
-0.111163 -0.0823767 0
-0.124012 -0.123029 0
-0.137353 -0.168098 0
-0.149412 -0.217517 0
-0.157415 -0.269289 0
-0.157737 -0.318172 0
-0.146535 -0.354389 0
-0.121157 -0.362892 0
-0.0826905 -0.324819 0
-0.0395694 -0.225405 0
-0.00924175 -0.075324 0
-0.000136035 0.0400984 0
-0.00107961 0.0988201 0
-0.00336012 0.13887 0
-0.0067309 0.16448 0
-0.0106586 0.179991 0
-0.0146131 0.188842 0
-0.0182096 0.193281 0
-0.0212377 0.194536 0
-0.0236361 0.19314 0
-0.0254507 0.189214 0
-0.0267972 0.182673 0
-0.0278353 0.173356 0
-0.0287564 0.161111 0
-0.0297763 0.145844 0
-0.0311318 0.127556 0
-0.0330813 0.10636 0
-0.0359077 0.0824826 0
-0.0399233 0.0562286 0
-0.0454736 0.027899 0
-0.0529242 -0.00234229 0
-0.0625861 -0.0346157 0
-0.0746627 -0.0695733 0
-0.0891352 -0.10851 0
-0.105455 -0.152956 0
-0.122179 -0.203877 0
-0.136654 -0.260453 0
-0.144942 -0.318398 0
-0.142239 -0.368069 0
-0.124165 -0.392665 0
-0.0895763 -0.3681 0
-0.0453959 -0.269425 0
-0.0112308 -0.0957966 0
-3.84992e-05 0.0402729 0
-0.000587973 0.100139 0
-0.00206464 0.141309 0
-0.00422068 0.167569 0
-0.00655533 0.183165 0
-0.00858456 0.191652 0
-0.00997106 0.195454 0
-0.0105526 0.195972 0
-0.0103207 0.19387 0
-0.00938003 0.189358 0
-0.00790771 0.182403 0
-0.00612653 0.172882 0
-0.00429245 0.160671 0
-0.00268713 0.145698 0
-0.00161083 0.127981 0
-0.0013788 0.107652 0
-0.00231849 0.0849564 0
-0.00476843 0.0602203 0
-0.00908118 0.0337703 0
-0.0156291 0.00578506 0
-0.0247731 -0.0239373 0
-0.0368173 -0.0561309 0
-0.0519629 -0.0923346 0
-0.0700706 -0.134704 0
-0.0902226 -0.185253 0
-0.110215 -0.244609 0
-0.126186 -0.309982 0
-0.132676 -0.372698 0
-0.12361 -0.415177 0
-0.0951362 -0.408651 0
-0.0515634 -0.316628 0
-0.0136475 -0.120675 0
-6.95006e-05 0.0403809 0
-0.000563691 0.101074 0
-0.00161546 0.142901 0
-0.00281 0.169326 0
-0.00364516 0.184577 0
-0.00371794 0.192342 0
-0.00278925 0.195222 0
-0.000787689 0.194784 0
0.002211 0.191828 0
0.00602335 0.186647 0
0.010398 0.179267 0
0.0150392 0.169596 0
0.0196225 0.15754 0
0.0238032 0.143043 0
0.0272233 0.126139 0
0.0295194 0.106966 0
0.0303325 0.0857693 0
0.0293181 0.0628718 0
0.0261541 0.0385955 0
0.0205382 0.0131236 0
0.0121518 -0.0137455 0
0.000660469 -0.042787 0
-0.0142841 -0.0755883 0
-0.0329029 -0.114723 0
-0.0549186 -0.163065 0
-0.078906 -0.222817 0
-0.101572 -0.293138 0
-0.117331 -0.367293 0
-0.118686 -0.428293 0
-0.0987432 -0.44395 0
-0.0579497 -0.365695 0
-0.0165758 -0.150898 0
-0.000295462 0.0407459 0
-0.001235 0.102143 0
-0.00240122 0.144051 0
-0.00297751 0.169948 0
-0.00242819 0.184242 0
-0.000491952 0.190814 0
0.00290084 0.192428 0
0.00766311 0.190814 0
0.0135821 0.18688 0
0.0203738 0.180991 0
0.0277062 0.173216 0
0.0352143 0.163497 0
0.0425126 0.151757 0
0.0492027 0.137955 0
0.0548813 0.122129 0
0.0591507 0.104411 0
0.0616336 0.0850285 0
0.0619884 0.0642722 0
0.059923 0.0424244 0
0.0551951 0.0196386 0
0.0475814 -0.00426036 0
0.0368429 -0.0300424 0
0.0226961 -0.0592416 0
0.00472192 -0.0944772 0
-0.0174907 -0.139083 0
-0.0435316 -0.196771 0
-0.0712013 -0.268848 0
-0.0955439 -0.351481 0
-0.108272 -0.430022 0
-0.0994063 -0.47103 0
-0.0642056 -0.414609 0
-0.0200445 -0.187518 0
-0.000829713 0.041871 0
-0.00295084 0.104079 0
-0.00494531 0.145276 0
-0.00529134 0.169645 0
-0.00342668 0.18213 0
0.000657263 0.186905 0
0.00673656 0.186865 0
0.0144823 0.183869 0
0.0235079 0.17888 0
0.0334078 0.172299 0
0.0437663 0.164218 0
0.054158 0.154596 0
0.0641513 0.143367 0
0.0733127 0.130494 0
0.0812142 0.11601 0
0.0874456 0.100029 0
0.0916303 0.0827429 0
0.0934442 0.0643892 0
0.0926296 0.0451872 0
0.0889981 0.0252351 0
0.0824049 0.00435003 0
0.0726759 -0.0181854 0
0.0595543 -0.0438302 0
0.0426543 -0.0750144 0
0.0214685 -0.115148 0
-0.00456493 -0.168632 0
-0.0349775 -0.238905 0
-0.0663565 -0.325703 0
-0.0907254 -0.418703 0
-0.0954993 -0.486441 0
-0.0695262 -0.460372 0
-0.0239401 -0.231503 0
-0.00187562 0.0445764 0
-0.00626294 0.107882 0
-0.00994776 0.147152 0
-0.0103802 0.168547 0
-0.00710321 0.178086 0
-0.000563902 0.180326 0
0.00856316 0.178238 0
0.0196184 0.173695 0
0.0320066 0.16764 0
0.0451936 0.160452 0
0.0586887 0.152211 0
0.0720246 0.142875 0
0.0847471 0.132372 0
0.0964133 0.120661 0
0.106597 0.107757 0
0.1149 0.0937464 0
0.120969 0.0787717 0
0.12451 0.0630052 0
0.125304 0.0465915 0
0.123205 0.0295614 0
0.118116 0.0117061 0
0.109921 -0.00761745 0
0.0983789 -0.0297341 0
0.0830787 -0.0569102 0
0.0634105 -0.092398 0
0.0385299 -0.140468 0
0.00767443 -0.205801 0
-0.0283362 -0.291417 0
-0.0636356 -0.39332 0
-0.0843849 -0.4863 0
-0.0722845 -0.498586 0
-0.027858 -0.283301 0
-0.00379166 0.0502436 0
-0.0120028 0.114813 0
-0.0182178 0.150121 0
-0.0187028 0.166496 0
-0.0135117 0.17167 0
-0.00387807 0.17057 0
0.00890165 0.166087 0
0.0237665 0.159926 0
0.0398973 0.152891 0
0.0566493 0.145262 0
0.0734852 0.137069 0
0.0899264 0.128239 0
0.105527 0.118684 0
0.119867 0.108344 0
0.132549 0.0972093 0
0.143212 0.0853277 0
0.151546 0.0727882 0
0.157298 0.059695 0
0.160287 0.0461182 0
0.160397 0.0320242 0
0.157552 0.0171773 0
0.15166 0.0009981 0
0.142483 -0.0176295 0
0.12956 -0.0407925 0
0.112147 -0.0714336 0
0.0890867 -0.113491 0
0.058922 -0.171757 0
0.0206514 -0.25118 0
-0.0236107 -0.353996 0
-0.0619331 -0.466553 0
-0.0694438 -0.522923 0
-0.0308374 -0.341997 0
-0.00714587 0.0611812 0
-0.0211746 0.126115 0
-0.0301322 0.153991 0
-0.029644 0.162623 0
-0.0211655 0.161873 0
-0.00716558 0.156732 0
0.0103041 0.149675 0
0.0297792 0.141998 0
0.0502607 0.134206 0
0.0710519 0.126404 0
0.091621 0.118523 0
0.111522 0.110443 0
0.130357 0.102045 0
0.147755 0.0932444 0
0.16338 0.0840019 0
0.176929 0.0743231 0
0.188143 0.0642448 0
0.19682 0.0538096 0
0.202808 0.0430261 0
0.206002 0.0318126 0
0.206314 0.0199215 0
0.203624 0.00683543 0
0.19771 -0.00837446 0
0.18806 -0.0274751 0
0.173718 -0.0529961 0
0.153189 -0.0883392 0
0.124366 -0.137922 0
0.0849034 -0.207282 0
0.0338721 -0.302601 0
-0.0219776 -0.423776 0
-0.0555969 -0.52457 0
-0.0308596 -0.403694 0
-0.0125476 0.0808747 0
-0.0339143 0.141817 0
-0.0433776 0.15671 0
-0.038462 0.1545 0
-0.0235494 0.146605 0
-0.00273515 0.137187 0
0.0212225 0.127794 0
0.0466205 0.119006 0
0.0724503 0.110887 0
0.0980782 0.103304 0
0.123057 0.0960746 0
0.14703 0.0890172 0
0.169686 0.0819809 0
0.19074 0.0748551 0
0.209934 0.0675723 0
0.227037 0.060102 0
0.24185 0.052438 0
0.254213 0.0445765 0
0.263999 0.0364855 0
0.271097 0.0280611 0
0.275389 0.0190694 0
0.2767 0.00906586 0
0.274735 -0.00272533 0
0.268903 -0.0176419 0
0.258077 -0.0376622 0
0.240401 -0.0654677 0
0.213169 -0.104739 0
0.172912 -0.160746 0
0.116302 -0.241496 0
0.0442526 -0.356982 0
-0.0213435 -0.492149 0
-0.0238213 -0.458375 0