# vtk DataFile Version 2.0
Lid-driven cavity
ASCII
DATASET STRUCTURED_POINTS
DIMENSIONS 32 32 1
ORIGIN 0.015625 0.015625 0
SPACING 0.03125 0.03125 1
POINT_DATA 1024
SCALARS pressure double 1
LOOKUP_TABLE default
-0.310104
-0.309103
-0.304738
-0.296914
-0.285701
-0.271214
-0.253592
-0.233002
-0.209637
-0.183719
-0.155494
-0.125233
-0.0932288
-0.0597936
-0.0252589
0.0100279
0.0457057
0.0814118
0.116773
0.151406
0.184931
0.216971
0.247158
0.275138
0.300578
0.323167
0.342626
0.358708
0.371204
0.379951
0.384847
0.386011
-0.311111
-0.310108
-0.305677
-0.297812
-0.286571
-0.272055
-0.254398
-0.233767
-0.210354
-0.184381
-0.156094
-0.125764
-0.0936824
-0.0601637
-0.025539
0.00984376
0.0456231
0.0814344
0.116903
0.151646
0.185281
0.217429
0.247721
0.275802
0.301335
0.324008
0.343541
0.359686
0.372239
0.381043
0.386012
0.387169
-0.31556
-0.314609
-0.310129
-0.302167
-0.290793
-0.276108
-0.258247
-0.237376
-0.213689
-0.187409
-0.158784
-0.128086
-0.0956105
-0.0616735
-0.0266089
0.0092326
0.0454869
0.0817825
0.117739
0.15297
0.187086
0.219703
0.250447
0.278954
0.304881
0.327911
0.347755
0.364162
0.376921
0.385872
0.390915
0.392019
-0.323667
-0.322728
-0.318165
-0.310038
-0.298424
-0.283428
-0.265189
-0.243873
-0.21968
-0.192835
-0.16359
-0.132222
-0.0990301
-0.064335
-0.0284761
0.00819058
0.0452949
0.0824558
0.119284
0.155383
0.190356
0.223809
0.255355
0.284619
0.311247
0.334909
0.355304
0.372171
0.38529
0.394491
0.399662
0.400763
-0.335526
-0.334573
-0.329879
-0.321509
-0.309542
-0.29409
-0.275293
-0.253326
-0.22839
-0.200717
-0.170566
-0.138218
-0.103981
-0.0681818
-0.0311678
0.00669653
0.0450321
0.083446
0.121536
0.158895
0.195111
0.229775
0.262484
0.292848
0.320493
0.345072
0.366268
0.383804
0.397445
0.407011
0.412379
0.413509
-0.351249
-0.350267
-0.345394
-0.336697
-0.324261
-0.308201
-0.288665
-0.265831
-0.23991
-0.211141
-0.179789
-0.146146
-0.110527
-0.0732706
-0.0347325
0.00471136
0.0446697
0.0847356
0.124492
0.163514
0.201373
0.23764
0.27189
0.303712
0.332708
0.358507
0.380769
0.399196
0.413534
0.423586
0.429224
0.430407
-0.370992
-0.369968
-0.364866
-0.355756
-0.342729
-0.325906
-0.30544
-0.281519
-0.254363
-0.22422
-0.191365
-0.156102
-0.118757
-0.0796783
-0.0392362
0.00218082
0.0441669
0.0862985
0.12814
0.169246
0.209168
0.24745
0.283643
0.317304
0.348008
0.375352
0.398966
0.418524
0.433748
0.444422
0.450405
0.451659
-0.39495
-0.393874
-0.388492
-0.37888
-0.365134
-0.347383
-0.32579
-0.300553
-0.271902
-0.240097
-0.205427
-0.168207
-0.128778
-0.087502
-0.0447628
-0.000964567
0.0434701
0.0880986
0.132464
0.176099
0.218526
0.259263
0.297826
0.333738
0.366536
0.395778
0.421059
0.442013
0.458332
0.469775
0.476188
0.477532
-0.423367
-0.422228
-0.416511
-0.406301
-0.391702
-0.372851
-0.349923
-0.323128
-0.29271
-0.258943
-0.222132
-0.182607
-0.140724
-0.0968594
-0.0514149
-0.00481105
0.0425112
0.0900882
0.137439
0.184071
0.229476
0.273138
0.314534
0.353145
0.388461
0.419994
0.447288
0.469935
0.487583
0.499962
0.506897
0.50835
-0.456531
-0.455318
-0.449209
-0.4383
-0.422703
-0.402569
-0.378085
-0.349477
-0.317005
-0.280962
-0.241669
-0.199474
-0.154749
-0.107891
-0.0593158
-0.00946389
0.0412048
0.0922044
0.143029
0.193156
0.242045
0.289139
0.333873
0.375675
0.41398
0.448241
0.477942
0.502615
0.52186
0.535363
0.542925
0.544512
-0.494782
-0.493484
-0.486921
-0.475201
-0.458452
-0.436836
-0.410559
-0.379866
-0.345037
-0.306385
-0.264251
-0.219004
-0.171035
-0.120759
-0.0686112
-0.0150498
0.0394452
0.0943655
0.149178
0.203331
0.256247
0.307326
0.355951
0.40149
0.443312
0.480797
0.513353
0.54044
0.561589
0.576434
0.584746
0.586491
-0.538518
-0.537121
-0.530034
-0.517384
-0.499311
-0.475999
-0.447674
-0.414603
-0.377091
-0.335476
-0.290124
-0.241423
-0.189789
-0.135653
-0.0794715
-0.0217198
0.0371027
0.0964661
0.155811
0.214556
0.272083
0.327748
0.380874
0.430761
0.476697
0.517974
0.553905
0.583855
0.607271
0.623715
0.63292
0.634853
-0.588197
-0.586686
-0.578999
-0.565283
-0.545699
-0.520454
-0.489799
-0.454032
-0.413488
-0.368533
-0.319559
-0.266984
-0.211242
-0.152787
-0.0920927
-0.0296517
0.0340195
0.0983723
0.162823
0.226759
0.289529
0.350435
0.408738
0.463659
0.514392
0.560118
0.600033
0.633381
0.659494
0.677845
0.688112
0.690268
-0.644349
-0.642708
-0.634334
-0.619398
-0.598091
-0.570647
-0.537353
-0.498541
-0.454584
-0.405882
-0.35286
-0.295964
-0.235652
-0.172401
-0.106698
-0.0390528
0.0300059
0.0999149
0.17007
0.239835
0.308521
0.375383
0.439613
0.500344
0.556658
0.607603
0.652225
0.689612
0.718946
0.739576
0.751113
0.753532
-0.707587
-0.705797
-0.696633
-0.680302
-0.657028
-0.627085
-0.590803
-0.548559
-0.500771
-0.447882
-0.390355
-0.328666
-0.263303
-0.194759
-0.123539
-0.0501617
0.0248359
0.100884
0.177365
0.253625
0.328947
0.402541
0.473529
0.540948
0.60375
0.660823
0.711024
0.753232
0.786431
0.809801
0.822858
0.82559
-0.778622
-0.77666
-0.766585
-0.748651
-0.723126
-0.690337
-0.650668
-0.604557
-0.552475
-0.494918
-0.432393
-0.365414
-0.294494
-0.220148
-0.142892
-0.0632488
0.0182446
0.10102
0.184461
0.267907
0.350623
0.431782
0.510445
0.585546
0.655892
0.720176
0.777014
0.825015
0.862887
0.889578
0.904471
0.907571
-0.858281
-0.856118
-0.844984
-0.825195
-0.797083
-0.761039
-0.717524
-0.667048
-0.610153
-0.547399
-0.479344
-0.406545
-0.329544
-0.248874
-0.165058
-0.0786152
0.00992615
0.100015
0.191048
0.282378
0.373272
0.462883
0.550221
0.634124
0.71324
0.786032
0.850814
0.905833
0.949413
0.980171
0.997299
1.00083
-0.947535
-0.945133
-0.932756
-0.910805
-0.879693
-0.839907
-0.792002
-0.736585
-0.674289
-0.605748
-0.531585
-0.452403
-0.368775
-0.28125
-0.190351
-0.0965883
-0.000465102
0.0974988
0.196738
0.296639
0.396499
0.495481
0.59257
0.686523
0.775831
0.858694
0.933048
0.996653
1.04729
1.0831
1.10298
1.10702
-1.04754
-1.04485
-1.03099
-1.00649
-0.971863
-0.927736
-0.87479
-0.813758
-0.745383
-0.670394
-0.58949
-0.503324
-0.412503
-0.317587
-0.219095
-0.117514
-0.0133092
0.0930499
0.201061
0.310178
0.419763
0.529034
0.636995
0.742364
0.843495
0.938308
1.02428
1.09852
1.15804
1.20022
1.22353
1.22816
-1.15968
-1.15663
-1.14098
-1.11341
-1.07463
-1.02542
-0.966635
-0.899181
-0.823939
-0.741755
-0.65341
-0.559619
-0.461018
-0.358177
-0.251601
-0.14174
-0.0290095
0.0861965
0.203468
0.322361
0.442353
0.562774
0.682722
0.800949
0.915733
1.02473
1.1249
1.21249
1.28338
1.33379
1.36148
1.36675
-1.28568
-1.28216
-1.26429
-1.23298
-1.18919
-1.13394
-1.06833
-0.993481
-0.910448
-0.820212
-0.723655
-0.62155
-0.514566
-0.403271
-0.288148
-0.169601
-0.0479732
0.0764346
0.203336
0.33243
0.463367
0.595665
0.728613
0.861123
0.991527
1.11732
1.23492
1.33951
1.42531
1.48665
1.52003
1.52597
-1.42766
-1.42353
-1.40283
-1.36685
-1.31691
-1.25438
-1.18071
-1.09728
-1.00535
-0.906085
-0.800457
-0.689302
-0.573313
-0.453049
-0.328958
-0.201384
-0.0705834
0.0632561
0.199997
0.339525
0.481717
0.626368
0.773087
0.921121
1.06909
1.21456
1.35356
1.48005
1.58592
1.66238
1.70346
1.70994
-1.58841
-1.58342
-1.55899
-1.51702
-1.45937
-1.38794
-1.30462
-1.21113
-1.10902
-0.999587
-0.883935
-0.762945
-0.637318
-0.50759
-0.37416
-0.237297
-0.0971608
0.0461901
0.192785
0.342725
0.496164
0.653256
0.814067
0.978406
1.14551
1.31351
1.47849
1.63338
1.76703
1.86547
1.91777
1.92441
-1.77163
-1.76536
-1.73584
-1.68593
-1.61839
-1.53587
-1.44085
-1.3355
-1.22165
-1.10077
-0.97405
-0.842395
-0.706492
-0.566835
-0.423752
-0.277429
-0.127916
0.02486
0.181101
0.341133
0.505411
0.674495
0.849021
1.02958
1.21647
1.40906
1.60456
1.79586
1.96875
2.10133
2.1722
2.17863
-1.98249
-1.9742
-1.93737
-1.87658
-1.79601
-1.69943
-1.59009
-1.47066
-1.34324
-1.20947
-1.07054
-0.927365
-0.78056
-0.630547
-0.477567
-0.321704
-0.1629
-0.000950418
0.164503
0.333993
0.508251
0.688236
0.875165
1.07053
1.27602
1.49309
1.72175
1.95751
2.18558
2.37455
2.48225
2.49086
-2.2286
-2.21687
-2.16896
-2.09264
-1.99446
-1.87975
-1.75271
-1.61651
-1.47345
-1.32519
-1.17288
-1.01732
-0.859021
-0.698285
-0.535236
-0.369849
-0.201953
-0.0312293
0.142806
0.320838
0.5038
0.692944
0.889925
1.09697
1.31709
1.55424
1.81295
2.096
2.39655
2.68061
2.87261
2.90226
-2.52202
-2.50372
-2.43786
-2.33845
-2.21586
-2.07753
-1.92858
-1.77246
-1.61146
-1.44705
-1.28018
-1.11143
-0.941116
-0.769367
-0.596164
-0.421353
-0.24466
-0.0656737
0.116172
0.301644
0.491758
0.687857
0.89172
1.10574
1.33338
1.57999
1.85434
2.17095
2.5484
2.98202
3.37016
3.50183
-2.88361
-2.85104
-2.75387
-2.61866
-2.46166
-2.29245
-2.11653
-1.93704
-1.75574
-1.57359
-1.3911
-1.20847
-1.02574
-0.842803
-0.659457
-0.47541
-0.290286
-0.10361
0.0852215
0.276985
0.472669
0.673499
0.880953
1.09678
1.32321
1.56368
1.82596
2.13327
2.55035
3.17608
3.97298
4.4618
-3.35427
-3.28506
-3.12863
-2.93613
-2.73048
-2.52148
-2.31312
-2.10691
-1.90325
-1.7021
-1.50323
-1.30632
-1.11101
-0.9169
-0.723578
-0.530598
-0.337485
-0.143728
0.051281
0.248293
0.448203
0.652002
0.860621
1.07459
1.29349
1.51538
1.73842
1.97609
2.34112
3.13156
4.63095
6.10659
-4.02626
-3.84298
-3.56606
-3.28168
-3.00972
-2.7523
-2.50737
-2.27254
-2.04577
-1.82547
-1.61039
-1.39956
-1.19214
-0.987402
-0.784709
-0.583451
-0.383062
-0.183014
0.0173017
0.218614
0.42172
0.627359
0.83593
1.04685
1.2574
1.461
1.64669
1.81081
2.07827
2.96294
5.42317
9.10261
-5.1233
-4.5202
-4.00053
-3.58667
-3.24053
-2.93608
-2.65874
-2.39996
-2.15455
-1.91914
-1.69149
-1.46996
-1.25331
-1.04055
-0.830834
-0.623431
-0.417718
-0.213164
-0.00914088
0.195078
0.400203
0.606752
0.814699
1.02277
1.22736
1.42153
1.59679
1.75925
2.09932
3.34812
7.23081
14.7788
-7.56358
-4.86034
-3.95111
-3.50498
-3.18272
-2.90177
-2.64055
-2.39206
-2.15308
-1.92167
-1.69642
-1.47626
-1.26028
-1.04773
-0.837931
-0.630278
-0.424275
-0.219465
-0.0152408
0.189053
0.393997
0.599898
0.806404
1.01192
1.2131
1.40614
1.59632
1.84444
2.47337
4.51386
11.0212
30.2751
VECTORS velocity double
-8.06971e-05 8.06972e-05 0
-0.00036431 0.000202916 0
-0.000808541 0.000241315 0
-0.00129507 0.000245212 0
-0.00177946 0.000239178 0
-0.00224846 0.000229822 0
-0.0026966 0.000218321 0
-0.00311973 0.00020481 0
-0.00351386 0.000189325 0
-0.00387511 0.000171924 0
-0.00419972 0.000152688 0
-0.00448413 0.000131716 0
-0.00472497 0.000109121 0
-0.00491912 8.50298e-05 0
-0.00506373 5.95888e-05 0
-0.0051563 3.29732e-05 0
-0.00519469 5.41999e-06 0
-0.00517729 -2.28237e-05 0
-0.005103 -5.14666e-05 0
-0.00497134 -8.0185e-05 0
-0.00478251 -0.000108646 0
-0.00453738 -0.000136488 0
-0.00423758 -0.000163316 0
-0.00388554 -0.000188716 0
-0.00348457 -0.000212263 0
-0.00303876 -0.000233543 0
-0.00255306 -0.000252155 0
-0.00203336 -0.000267544 0
-0.00148792 -0.0002779 0
-0.000934646 -0.000275374 0
-0.000426297 -0.000232975 0
-9.66616e-05 -9.66617e-05 0
-0.000207117 0.000368511 0
-0.000807849 0.000799449 0
-0.00165211 0.00093327 0
-0.00255934 0.000947016 0
-0.00346141 0.000923835 0
-0.00433431 0.000887063 0
-0.00516654 0.000841453 0
-0.00594959 0.000787859 0
-0.00667578 0.000726603 0
-0.0073379 0.000658016 0
-0.00792919 0.00058249 0
-0.00844334 0.000500471 0
-0.00887459 0.000412453 0
-0.00921772 0.000318979 0
-0.00946811 0.000220648 0
-0.00962177 0.000118135 0
-0.0096754 1.22773e-05 0
-0.00962663 -9.58502e-05 0
-0.00947431 -0.000205051 0
-0.00921836 -0.000314202 0
-0.00885973 -0.000422093 0
-0.00840051 -0.000527389 0
-0.00784409 -0.000628648 0
-0.00719515 -0.000724352 0
-0.0064598 -0.00081295 0
-0.00564556 -0.000892904 0
-0.00476141 -0.000962647 0
-0.00381826 -0.0010199 0
-0.0028315 -0.00105776 0
-0.00183154 -0.00104874 0
-0.000897726 -0.000901772 0
-0.000230951 -0.000424275 0
-0.000253673 0.000829301 0
-0.000971843 0.00165756 0
-0.00196084 0.00190841 0
-0.00301456 0.00193283 0
-0.00405948 0.00188501 0
-0.00506953 0.00180884 0
-0.00603157 0.00171395 0
-0.00693563 0.00160247 0
-0.00777275 0.00147531 0
-0.00853463 0.00133331 0
-0.00921356 0.0011774 0
-0.00980244 0.00100859 0
-0.0102948 0.000827974 0
-0.010685 0.000636739 0
-0.0109679 0.000436171 0
-0.0111393 0.00022768 0
-0.0111958 1.29133e-05 0
-0.0111352 -0.00020593 0
-0.010956 -0.000426487 0
-0.0106581 -0.00064657 0
-0.0102427 -0.000863783 0
-0.00971211 -0.00107549 0
-0.00907024 -0.00127885 0
-0.00832245 -0.00147087 0
-0.00747572 -0.00164851 0
-0.00653864 -0.00180867 0
-0.00552152 -0.00194816 0
-0.00443686 -0.0020622 0
-0.00330192 -0.00213716 0
-0.00214964 -0.00212156 0
-0.00106567 -0.00184674 0
-0.000278259 -0.000933486 0
-0.000269015 0.00135199 0
-0.00103016 0.00261419 0
-0.00207605 0.00298667 0
-0.00318742 0.00301965 0
-0.00428786 0.00294355 0
-0.00535084 0.00282333 0
-0.0063629 0.00267356 0
-0.00731367 0.00249769 0
-0.0081938 0.00229734 0
-0.00899462 0.00207398 0
-0.00970813 0.00182916 0
-0.010327 0.00156456 0
-0.0108445 0.00128194 0
-0.0112548 0.00098324 0
-0.0115528 0.000670511 0
-0.011734 0.000346008 0
-0.0117952 1.22952e-05 0
-0.0117338 -0.000327437 0
-0.0115481 -0.00066978 0
-0.0112379 -0.00101133 0
-0.010804 -0.00134838 0
-0.0102486 -0.00167686 0
-0.00957557 -0.0019924 0
-0.00879029 -0.00229039 0
-0.00789992 -0.00256609 0
-0.00691338 -0.00281471 0
-0.00584145 -0.00303118 0
-0.00469722 -0.00320806 0
-0.00349866 -0.0033248 0
-0.00227989 -0.00330498 0
-0.00113079 -0.0028964 0
-0.000295138 -0.00150688 0
-0.000278326 0.00189933 0
-0.00106746 0.00361712 0
-0.00215291 0.00411509 0
-0.00330583 0.00415551 0
-0.00444683 0.00404914 0
-0.00554869 0.0038826 0
-0.00659773 0.00367539 0
-0.00758338 0.00343227 0
-0.00849608 0.00315559 0
-0.00932699 0.00284747 0
-0.0100679 0.00251013 0
-0.0107114 0.00214593 0
-0.0112507 0.00175736 0
-0.0116796 0.00134707 0
-0.0119929 0.000917914 0
-0.012186 0.00047299 0
-0.0122553 1.57653e-05 0
-0.012198 -0.000449698 0
-0.0120121 -0.000919017 0
-0.0116968 -0.00138756 0
-0.0112527 -0.00185024 0
-0.0106816 -0.00230151 0
-0.009987 -0.00273537 0
-0.0091742 -0.00314549 0
-0.00825028 -0.00352528 0
-0.00722427 -0.00386807 0
-0.00610728 -0.00416674 0
-0.00491296 -0.00441105 0
-0.00366012 -0.00457321 0
-0.00238473 -0.00455073 0
-0.00118169 -0.00400279 0
-0.000307907 -0.00210993 0
-0.000288865 0.00246652 0
-0.00110901 0.00465921 0
-0.00223817 0.00528762 0
-0.00343763 0.00533535 0
-0.00462457 0.00519724 0
-0.00577075 0.00498255 0
-0.0068621 0.00471583 0
-0.00788781 0.00440318 0
-0.00883813 0.0040477 0
-0.00970403 0.00365218 0
-0.0104772 0.00321953 0
-0.01115 0.0027528 0
-0.0117154 0.00225518 0
-0.0121673 0.00173004 0
-0.0125 0.00118097 0
-0.0127088 0.000611844 0
-0.0127896 2.69763e-05 0
-0.0127391 -0.000568745 0
-0.012555 -0.00116998 0
-0.0122359 -0.00177092 0
-0.0117818 -0.00236511 0
-0.0111941 -0.00294547 0
-0.0104758 -0.0035043 0
-0.00963177 -0.00403337 0
-0.00866901 -0.00452409 0
-0.00759662 -0.00496766 0
-0.00642606 -0.00535469 0
-0.0051717 -0.00567178 0
-0.00385362 -0.00588339 0
-0.0025104 -0.00585918 0
-0.00124318 -0.0051646 0
-0.000323624 -0.00274146 0
-0.000302137 0.00305752 0
-0.0011606 0.00574682 0
-0.00234311 0.00651169 0
-0.00359934 0.00656697 0
-0.00484243 0.00639564 0
-0.00604284 0.00613075 0
-0.00718598 0.00580212 0
-0.0082607 0.00541732 0
-0.00925701 0.0049802 0
-0.0101657 0.00449429 0
-0.0109783 0.0039632 0
-0.0116871 0.00339065 0
-0.0122848 0.00278053 0
-0.0127651 0.00213686 0
-0.0131221 0.00146391 0
-0.0133507 0.000766268 0
-0.0134463 4.89648e-05 0
-0.0134053 -0.00068232 0
-0.0132244 -0.00142134 0
-0.0129019 -0.00216116 0
-0.0124368 -0.00289401 0
-0.0118299 -0.00361123 0
-0.0110834 -0.00430331 0
-0.0102018 -0.00495997 0
-0.00919175 -0.00557036 0
-0.0080623 -0.00612324 0
-0.00682538 -0.00660658 0
-0.00549626 -0.00700337 0
-0.00409673 -0.0072694 0
-0.00266874 -0.00724438 0
-0.00132118 -0.00639417 0
-0.000343774 -0.00340886 0
-0.000318442 0.0036781 0
-0.00122357 0.00688983 0
-0.00247063 0.00779825 0
-0.00379538 0.00786139 0
-0.00510615 0.00765508 0
-0.00637186 0.00733743 0
-0.00757725 0.00694396 0
-0.00871079 0.00648374 0
-0.00976222 0.00596153 0
-0.0107221 0.0053816 0
-0.0115819 0.00474829 0
-0.0123337 0.00406603 0
-0.0129701 0.00333934 0
-0.0134847 0.00257287 0
-0.0138712 0.00177145 0
-0.0141241 0.000940266 0
-0.0142385 8.49612e-05 0
-0.0142098 -0.000788095 0
-0.0140343 -0.00167185 0
-0.0137092 -0.00255835 0
-0.0132325 -0.00343852 0
-0.012604 -0.00430214 0
-0.0118251 -0.00513776 0
-0.0108994 -0.00593287 0
-0.00983291 -0.00667403 0
-0.00863476 -0.00734717 0
-0.00731725 -0.00793709 0
-0.00589675 -0.00842248 0
-0.0043972 -0.00874937 0
-0.0028648 -0.00872481 0
-0.00141804 -0.00770807 0
-0.000368889 -0.00412152 0
-0.000337942 0.00433449 0
-0.00129867 0.0080993 0
-0.00262234 0.0091595 0
-0.00402819 0.00923074 0
-0.00541889 0.00898722 0
-0.00676156 0.00861367 0
-0.00804014 0.00815169 0
-0.00924267 0.00761208 0
-0.0103586 0.00700056 0
-0.0113784 0.00632226 0
-0.0122932 0.00558228 0
-0.0130952 0.00478577 0
-0.013777 0.00393786 0
-0.0143319 0.00304372 0
-0.0147534 0.00210867 0
-0.0150358 0.00113832 0
-0.0151733 0.000138765 0
-0.0151608 -0.000883091 0
-0.0149935 -0.00191955 0
-0.0146676 -0.00296179 0
-0.0141797 -0.00399954 0
-0.0135283 -0.00502101 0
-0.0127134 -0.00601274 0
-0.0117373 -0.0069597 0
-0.0106054 -0.00784554 0
-0.00932647 -0.00865278 0
-0.00791306 -0.00936239 0
-0.00638288 -0.00994786 0
-0.00476249 -0.0103439 0
-0.00310344 -0.0103217 0
-0.00153606 -0.00912533 0
-0.000399532 -0.00488994 0
-0.000360847 0.00503328 0
-0.00138673 0.00938712 0
-0.00279992 0.0106085 0
-0.0043003 0.0106879 0
-0.00578394 0.0104044 0
-0.0072158 0.00997103 0
-0.00857895 0.00943607 0
-0.00986094 0.00881223 0
-0.011051 0.00810636 0
-0.0121393 0.00732456 0
-0.0131172 0.00647277 0
-0.0139768 0.00555685 0
-0.0147107 0.00458252 0
-0.0153122 0.00355538 0
-0.0157747 0.00248109 0
-0.016092 0.0013655 0
-0.0162579 0.000214946 0
-0.0162663 -0.000963396 0
-0.0161113 -0.00216142 0
-0.0157876 -0.00336965 0
-0.0152903 -0.00457681 0
-0.0146158 -0.00576959 0
-0.0137625 -0.00693247 0
-0.0127308 -0.00804767 0
-0.0115248 -0.00909541 0
-0.0101525 -0.0100542 0
-0.00862679 -0.0109002 0
-0.00696665 -0.0116004 0
-0.00520192 -0.0120765 0
-0.0033908 -0.0120593 0
-0.00167823 -0.0106677 0
-0.000436452 -0.00572593 0
-0.000387443 0.00578157 0
-0.00148883 0.0107661 0
-0.00300551 0.0121594 0
-0.00461486 0.0122468 0
-0.00620528 0.0119196 0
-0.00773923 0.0114216 0
-0.00919878 0.0108082 0
-0.010571 0.0100943 0
-0.0118447 0.00928809 0
-0.0130104 0.00839681 0
-0.0140593 0.00742734 0
-0.0149837 0.00638628 0
-0.0157766 0.00527989 0
-0.0164312 0.0041141 0
-0.016941 0.00289472 0
-0.0172994 0.0016276 0
-0.0174997 0.000319 0
-0.0175349 -0.00102393 0
-0.0173977 -0.00239303 0
-0.0170809 -0.00377852 0
-0.0165777 -0.00516842 0
-0.0158821 -0.00654809 0
-0.0149895 -0.0078999 0
-0.0138983 -0.00920312 0
-0.0126102 -0.010434 0
-0.011132 -0.0115661 0
-0.00947622 -0.0125697 0
-0.0076635 -0.0134037 0
-0.00572752 -0.0139739 0
-0.00373482 -0.0139657 0
-0.00184845 -0.0123602 0
-0.000480635 -0.00664302 0
-0.000418102 0.00658711 0
-0.00160636 0.0122502 0
-0.0032418 0.0138275 0
-0.0049758 0.0139221 0
-0.00668785 0.0135467 0
-0.00833754 0.0129781 0
-0.0099058 0.0122795 0
-0.0113791 0.0114685 0
-0.0127464 0.0105549 0
-0.013998 0.00954722 0
-0.0151256 0.00845345 0
-0.016122 0.00728098 0
-0.0169805 0.00603655 0
-0.0176947 0.00472631 0
-0.0182584 0.00335598 0
-0.0186647 0.0019311 0
-0.0189064 0.000457494 0
-0.0189755 -0.00105818 0
-0.0188633 -0.00260818 0
-0.0185605 -0.00418296 0
-0.0180574 -0.00577026 0
-0.0173448 -0.00735445 0
-0.0164149 -0.00891598 0
-0.0152623 -0.0104309 0
-0.0138855 -0.0118711 0
-0.0122888 -0.013204 0
-0.0104842 -0.0143923 0
-0.00849342 -0.0153846 0
-0.00635499 -0.0160674 0
-0.00414591 -0.016074 0
-0.00205178 -0.0142324 0
-0.000533366 -0.00765702 0
-0.000453313 0.00745853 0
-0.00174113 0.0138548 0
-0.00351226 0.0156294 0
-0.00538809 0.01573 0
-0.00723784 0.0153006 0
-0.00901777 0.0146538 0
-0.0107075 0.0138618 0
-0.0122931 0.0129452 0
-0.0137634 0.0119158 0
-0.0151092 0.0107837 0
-0.0163228 0.00955822 0
-0.0173978 0.00824756 0
-0.0183283 0.00685893 0
-0.0191086 0.00539851 0
-0.0197328 0.00387166 0
-0.0201943 0.00228326 0
-0.0204854 0.000638187 0
-0.0205972 -0.00105796 0
-0.0205193 -0.00279851 0
-0.02024 -0.00457487 0
-0.0197462 -0.00637521 0
-0.0190247 -0.00818354 0
-0.0180628 -0.00997871 0
-0.01685 -0.0117337 0
-0.0153801 -0.0134151 0
-0.0136535 -0.0149832 0
-0.01168 -0.0163911 0
-0.00948252 -0.017574 0
-0.00710501 -0.018394 0
-0.00463781 -0.0184237 0
-0.00229492 -0.0163197 0
-0.000596319 -0.0087867 0
-0.000493714 0.00840556 0
-0.00189548 0.0155974 0
-0.00382133 0.0175838 0
-0.00585807 0.0176881 0
-0.00786305 0.0171972 0
-0.00978865 0.0164628 0
-0.0116131 0.0155671 0
-0.0133221 0.0145345 0
-0.0149046 0.0133793 0
-0.0163523 0.0121136 0
-0.0176584 0.0107481 0
-0.0188179 0.00929205 0
-0.0198259 0.007753 0
-0.0206782 0.006137 0
-0.0213696 0.00444875 0
-0.0218939 0.00269201 0
-0.0222434 0.000870108 0
-0.0224084 -0.00101314 0
-0.0223766 -0.00295299 0
-0.0221336 -0.0049428 0
-0.0216624 -0.00697223 0
-0.0209445 -0.00902588 0
-0.019961 -0.0110818 0
-0.0186943 -0.0131101 0
-0.0171309 -0.0150719 0
-0.0152649 -0.0169189 0
-0.0131021 -0.0185917 0
-0.0106654 -0.0200076 0
-0.00800517 -0.0209981 0
-0.00522891 -0.0210631 0
-0.00258677 -0.0186654 0
-0.000671697 -0.0100547 0
-0.000540156 0.00943943 0
-0.0020725 0.0174976 0
-0.0041748 0.0197117 0
-0.00639389 0.0198161 0
-0.00857337 0.0192537 0
-0.0106611 0.0184197 0
-0.0126339 0.0174075 0
-0.0144771 0.0162462 0
-0.0161804 0.0149533 0
-0.0177365 0.0135433 0
-0.0191405 0.0120286 0
-0.0203889 0.0104195 0
-0.0214791 0.0087239 0
-0.0224084 0.00694759 0
-0.023173 0.0050942 0
-0.023768 0.00316582 0
-0.0241857 0.00116356 0
-0.0244159 -0.000911435 0
-0.0244449 -0.00305747 0
-0.0242551 -0.00527116 0
-0.023825 -0.00754512 0
-0.0231297 -0.00986611 0
-0.0221421 -0.0122128 0
-0.0208347 -0.0145533 0
-0.0191837 -0.0168433 0
-0.017173 -0.0190243 0
-0.0148009 -0.0210211 0
-0.0120884 -0.0227274 0
-0.00909301 -0.0239339 0
-0.00594424 -0.0240523 0
-0.00293933 -0.0213232 0
-0.000762433 -0.0114888 0
-0.000593786 0.0105734 0
-0.00227629 0.0195785 0
-0.00458028 0.0220371 0
-0.00700617 0.0221357 0
-0.00938151 0.0214889 0
-0.0116491 0.0205398 0
-0.013784 0.019395 0
-0.0157716 0.0180895 0
-0.0176029 0.0166446 0
-0.0192725 0.0150777 0
-0.0207777 0.0134034 0
-0.0221179 0.0116332 0
-0.023293 0.00977544 0
-0.0243028 0.0078351 0
-0.0251459 0.00581448 0
-0.0258189 0.0037134 0
-0.0263151 0.00152998 0
-0.0266244 -0.000738346 0
-0.0267318 -0.00309424 0
-0.0266167 -0.0055393 0
-0.0262526 -0.00807113 0
-0.025607 -0.0106809 0
-0.0246424 -0.0133502 0
-0.0233183 -0.0160473 0
-0.0215954 -0.0187232 0
-0.0194422 -0.0213083 0
-0.0168439 -0.0237075 0
-0.0138151 -0.0257823 0
-0.0104206 -0.0272689 0
-0.00681868 -0.027468 0
-0.00336921 -0.0243619 0
-0.000872491 -0.0131238 0
-0.000656177 0.0118233 0
-0.00251243 0.0218673 0
-0.00504798 0.0245879 0
-0.00770889 0.0246717 0
-0.010304 0.0239233 0
-0.0127701 0.022839 0
-0.0150808 0.0215414 0
-0.0172221 0.0200722 0
-0.0191868 0.0184579 0
-0.0209724 0.0167195 0
-0.0225797 0.0148741 0
-0.0240117 0.0129346 0
-0.0252719 0.0109094 0
-0.0263636 0.00880272 0
-0.0272887 0.00661501 0
-0.0280461 0.00434323 0
-0.0286313 0.00198163 0
-0.0290348 -0.000477226 0
-0.029241 -0.00304179 0
-0.0292271 -0.00572075 0
-0.0289615 -0.00851936 0
-0.0284032 -0.0114365 0
-0.027502 -0.0144605 0
-0.0262001 -0.017563 0
-0.0244369 -0.0206935 0
-0.0221567 -0.0237713 0
-0.0193222 -0.0266773 0
-0.0159341 -0.0292294 0
-0.0120622 -0.0310883 0
-0.0079023 -0.0314104 0
-0.0038999 -0.0278714 0
-0.00100733 -0.0150036 0
-0.000729527 0.013209 0
-0.00278859 0.0243969 0
-0.00559171 0.0273969 0
-0.00852071 0.0274526 0
-0.0113624 0.0265792 0
-0.0140469 0.0253337 0
-0.0165465 0.0238571 0
-0.0188488 0.0222001 0
-0.0209495 0.0203954 0
-0.0228503 0.0184684 0
-0.0245569 0.0164391 0
-0.026077 0.0143217 0
-0.0274191 0.0121246 0
-0.028591 0.00985118 0
-0.0295988 0.00749938 0
-0.0304453 0.00506277 0
-0.0311289 0.0025309 0
-0.0316422 -0.000109719 0
-0.0319705 -0.00287482 0
-0.0320894 -0.0057826 0
-0.0319633 -0.00884927 0
-0.0315424 -0.0120859 0
-0.030762 -0.0154927 0
-0.0295429 -0.0190517 0
-0.0277948 -0.0227162 0
-0.0254259 -0.0263978 0
-0.0223611 -0.0299501 0
-0.0185722 -0.0331335 0
-0.014127 -0.0355014 0
-0.00926968 -0.0360146 0
-0.00456605 -0.0319732 0
-0.00117472 -0.0171857 0
-0.00081697 0.0147555 0
-0.00311554 0.0272081 0
-0.00623051 0.0305039 0
-0.00946686 0.030511 0
-0.0125854 0.029481 0
-0.0155089 0.0280399 0
-0.0182091 0.0263508 0
-0.0206765 0.024476 0
-0.0229117 0.0224554 0
-0.0249223 0.0203199 0
-0.0267204 0.0180923 0
-0.0283202 0.0157883 0
-0.0297363 0.0134162 0
-0.0309825 0.0109778 0
-0.0320702 0.00846831 0
-0.0330073 0.00587741 0
-0.0337967 0.00318927 0
-0.0344348 0.000383313 0
-0.0349095 -0.00256497 0
-0.0351973 -0.00568558 0
-0.0352603 -0.0090095 0
-0.0350414 -0.0125654 0
-0.0344612 -0.0163737 0
-0.0334149 -0.0204362 0
-0.0317734 -0.0247213 0
-0.0293924 -0.0291426 0
-0.0261346 -0.0335279 0
-0.0219157 -0.0375634 0
-0.0167828 -0.0406495 0
-0.0110381 -0.0414685 0
-0.00542186 -0.0368391 0
-0.0013863 -0.0197467 0
-0.000923083 0.0164956 0
-0.00350874 0.0303523 0
-0.00699111 0.033957 0
-0.010582 0.033885 0
-0.0140114 0.032655 0
-0.0171945 0.0309725 0
-0.0201042 0.0290281 0
-0.022736 0.0268979 0
-0.0250982 0.0246309 0
-0.0272068 0.0222636 0
-0.0290823 0.0198221 0
-0.0307471 0.017323 0
-0.0322236 0.0147741 0
-0.0335326 0.0121751 0
-0.0346923 0.00951838 0
-0.035717 0.00678913 0
-0.0366158 0.00396579 0
-0.0373911 0.00102012 0
-0.0380359 -0.00208233 0
-0.0385311 -0.00538513 0
-0.0388402 -0.00893785 0
-0.0389029 -0.0127932 0
-0.0386276 -0.0170015 0
-0.0378829 -0.0215994 0
-0.0364926 -0.0265898 0
-0.034239 -0.0319088 0
-0.0308867 -0.0373718 0
-0.0262462 -0.0425789 0
-0.0203 -0.0467132 0
-0.0134062 -0.0480433 0
-0.00656094 -0.0427258 0
-0.00166174 -0.0227947 0
-0.00105473 0.0184734 0
-0.00399084 0.0338962 0
-0.0079117 0.0378163 0
-0.0119141 0.0376189 0
-0.015692 0.0361285 0
-0.0191539 0.0341439 0
-0.0222766 0.0318891 0
-0.025065 0.0294572 0
-0.0275384 0.0269073 0
-0.0297246 0.024282 0
-0.0316552 0.0216098 0
-0.0333627 0.0189076 0
-0.0348787 0.0161819 0
-0.0362324 0.01343 0
-0.0374498 0.0106406 0
-0.038553 0.00779472 0
-0.0395589 0.00486494 0
-0.0404782 0.0018155 0
-0.0413128 -0.00139837 0
-0.0420523 -0.00483436 0
-0.0426683 -0.00856349 0
-0.0431047 -0.0126684 0
-0.0432657 -0.0172407 0
-0.042999 -0.0223715 0
-0.0420784 -0.0281284 0
-0.0401925 -0.0345097 0
-0.0369588 -0.0413569 0
-0.0320008 -0.0481923 0
-0.02514 -0.0539068 0
-0.0167444 -0.056139 0
-0.00817043 -0.0500494 0
-0.00204214 -0.0264986 0
-0.00122254 0.0207507 0
-0.00459603 0.0379286 0
-0.00904803 0.0421568 0
-0.013531 0.0417637 0
-0.0176977 0.0399284 0
-0.0214527 0.0375608 0
-0.024783 0.0349253 0
-0.0277088 0.0321351 0
-0.0302662 0.0292602 0
-0.0324986 0.0263478 0
-0.0344519 0.0234278 0
-0.0361707 0.0205159 0
-0.037697 0.017616 0
-0.0390693 0.014722 0
-0.0403224 0.0118191 0
-0.0414869 0.00888392 0
-0.0425893 0.00588408 0
-0.043651 0.0027773 0
-0.0446861 -0.000490455 0
-0.0456993 -0.00398957 0
-0.0466788 -0.00781275 0
-0.0475856 -0.0120759 0
-0.0483359 -0.016922 0
-0.0487745 -0.0225184 0
-0.0486376 -0.029039 0
-0.0475124 -0.0366104 0
-0.0448169 -0.0451854 0
-0.0398652 -0.0542736 0
-0.0321268 -0.0624248 0
-0.0218043 -0.0663392 0
-0.0106823 -0.0595453 0
-0.00263629 -0.031177 0
-0.0014436 0.0234168 0
-0.00537755 0.0425699 0
-0.0104834 0.0470734 0
-0.0155297 0.0463765 0
-0.0201245 0.0440773 0
-0.0241767 0.041219 0
-0.0276939 0.0381146 0
-0.0307215 0.0348991 0
-0.0333195 0.0316517 0
-0.0355528 0.028422 0
-0.0374841 0.0252382 0
-0.0391722 0.0221124 0
-0.0406703 0.019044 0
-0.0420266 0.0160227 0
-0.0432846 0.0130295 0
-0.044484 0.0100375 0
-0.0456616 0.0070105 0
-0.0468511 0.00390204 0
-0.048083 0.000651862 0
-0.0493827 -0.00281909 0
-0.0507658 -0.00662053 0
-0.0522281 -0.0108991 0
-0.0537247 -0.0158519 0
-0.0551349 -0.0217397 0
-0.056201 -0.0288884 0
-0.0564394 -0.0376478 0
-0.0550451 -0.0482377 0
-0.050875 -0.060343 0
-0.0427112 -0.0722575 0
-0.0301251 -0.0794151 0
-0.0151405 -0.0725759 0
-0.0037598 -0.0375731 0
-0.00174665 0.026607 0
-0.00642128 0.0479882 0
-0.0123452 0.0526848 0
-0.0180503 0.0515164 0
-0.0231037 0.0485856 0
-0.0274362 0.0450954 0
-0.0310948 0.0414141 0
-0.0341643 0.0376966 0
-0.0367389 0.0340268 0
-0.03891 0.0304512 0
-0.0407607 0.0269912 0
-0.0423648 0.0236515 0
-0.0437865 0.0204248 0
-0.0450832 0.0172948 0
-0.0463063 0.0142384 0
-0.0475039 0.0112256 0
-0.0487227 0.00821871 0
-0.0500096 0.00517027 0
-0.0514132 0.0020192 0
-0.0529846 -0.00131539 0
-0.0547771 -0.00494854 0
-0.0568409 -0.00904508 0
-0.0592066 -0.0138435 0
-0.0618496 -0.0196949 0
-0.0646103 -0.0271064 0
-0.0670448 -0.0367569 0
-0.0681931 -0.0493745 0
-0.0663435 -0.0652259 0
-0.0591008 -0.0827812 0
-0.0444603 -0.0961181 0
-0.0237974 -0.0915203 0
-0.00623697 -0.0475699 0
-0.00218262 0.0305363 0
-0.00787131 0.0544222 0
-0.0148326 0.0591359 0
-0.0212964 0.0572342 0
-0.0268117 0.0534366 0
-0.0313684 0.0491337 0
-0.0350831 0.044749 0
-0.0381003 0.0404484 0
-0.04056 0.0363093 0
-0.0425855 0.0323653 0
-0.0442818 0.0286241 0
-0.0457368 0.0250776 0
-0.0470248 0.0217084 0
-0.0482098 0.0184929 0
-0.0493496 0.0154032 0
-0.0504984 0.0124073 0
-0.0517111 0.00946845 0
-0.0530461 0.00654239 0
-0.0545694 0.003574 0
-0.0563587 0.000490534 0
-0.0585098 -0.00281081 0
-0.0611422 -0.00648672 0
-0.0643983 -0.0107801 0
-0.0684265 -0.0160872 0
-0.0733094 -0.0230705 0
-0.078863 -0.0328048 0
-0.0842059 -0.0468354 0
-0.087089 -0.0667316 0
-0.0834038 -0.0922034 0
-0.0681834 -0.116557 0
-0.0402169 -0.119711 0
-0.0116749 -0.0654818 0
-0.00284624 0.0355652 0
-0.00997692 0.0622128 0
-0.0182576 0.0665874 0
-0.0255547 0.0635435 0
-0.0314697 0.0585575 0
-0.0361221 0.0532219 0
-0.0397447 0.047998 0
-0.0425672 0.0430392 0
-0.0447854 0.0383964 0
-0.0465575 0.0340758 0
-0.0480084 0.0300609 0
-0.0492375 0.0263249 0
-0.0503251 0.0228366 0
-0.0513387 0.0195633 0
-0.0523384 0.0164722 0
-0.0533815 0.0135303 0
-0.054527 0.0107037 0
-0.0558404 0.00795556 0
-0.0573997 0.0052434 0
-0.0593032 0.00251395 0
-0.0616815 -0.000304746 0
-0.0647195 -0.00332248 0
-0.0686836 -0.00672406 0
-0.0739492 -0.0108493 0
-0.0809854 -0.0163892 0
-0.0901542 -0.0247637 0
-0.101056 -0.0386321 0
-0.111206 -0.0619019 0
-0.114555 -0.0973684 0
-0.101966 -0.139201 0
-0.0670317 -0.159968 0
-0.0218211 -0.0989778 0
-0.00391828 0.0423297 0