# vtk DataFile Version 2.0
Lid-driven cavity
ASCII
DATASET STRUCTURED_POINTS
DIMENSIONS 32 32 1
ORIGIN 0.015625 0.015625 0
SPACING 0.03125 0.03125 1
POINT_DATA 1024
SCALARS pressure double 1
LOOKUP_TABLE default
8.24027
8.21637
8.19077
8.17587
8.17637
8.19332
8.2267
8.27664
8.34376
8.42901
8.53333
8.65724
8.80047
8.96153
9.13742
9.32349
9.5135
9.69957
9.87277
10.0239
10.1449
10.2297
10.2762
10.2858
10.2641
10.2191
10.1607
10.0986
10.0416
9.99723
9.97179
9.96774
8.26418
8.23931
8.22
8.2116
8.2166
8.23586
8.26976
8.3188
8.38379
8.46572
8.5655
8.6836
8.81979
8.9727
9.13956
9.31606
9.49636
9.67302
9.83763
9.98146
10.0967
10.178
10.2233
10.2345
10.2169
10.1785
10.1284
10.0755
10.0269
9.98909
9.96689
9.96367
8.28988
8.25586
8.23611
8.23028
8.23781
8.2583
8.2918
8.33888
8.40056
8.47802
8.57241
8.68452
8.81445
8.96126
9.1226
9.29454
9.47129
9.64548
9.80859
9.95157
10.0663
10.1468
10.1911
10.201
10.1826
10.1443
10.0953
10.0446
9.99869
9.96292
9.94145
9.93789
8.30016
8.25516
8.2321
8.22625
8.23431
8.25442
8.28608
8.32978
8.3867
8.45836
8.54632
8.65191
8.77582
8.9178
9.0762
9.24756
9.42574
9.60325
9.77109
9.91942
10.0391
10.1232
10.1686
10.1772
10.1552
10.1124
10.0594
10.0051
9.95681
9.91907
9.89557
9.8897
8.28165
8.2261
8.1988
8.19141
8.19828
8.2163
8.24443
8.28305
8.33351
8.39772
8.47777
8.57566
8.6929
8.83014
8.98672
9.16003
9.34337
9.52905
9.70756
9.86802
9.99969
10.0939
10.1458
10.156
10.131
10.0814
10.0197
9.95732
9.90159
9.85774
9.82921
9.81933
8.22284
8.15773
8.12612
8.1163
8.12058
8.13486
8.15762
8.18918
8.23108
8.28556
8.35531
8.44307
8.55131
8.68182
8.83524
9.01044
9.20067
9.39805
9.59287
9.77324
9.92644
10.041
10.1092
10.129
10.1055
10.0501
9.97736
9.90172
9.8335
9.77882
9.74169
9.72585
8.11301
8.0394
8.00365
7.99075
7.9912
8.00002
8.01533
8.03736
8.06772
8.10895
8.16426
8.23717
8.33122
8.4496
8.59462
8.76728
8.96258
9.17254
9.3882
9.5971
9.78434
9.93474
10.0357
10.0804
10.0702
10.0153
9.93233
9.83982
9.75308
9.68162
9.63103
9.60639
7.94188
7.86068
7.8209
7.80424
7.79948
7.80081
7.80596
7.81493
7.82924
7.85155
7.88542
7.93511
8.00538
8.10111
8.22688
8.38632
8.57875
8.79726
9.03527
9.28088
9.51731
9.72481
9.88387
9.97951
10.0055
9.96729
9.88138
9.77117
9.65968
9.56356
9.49338
9.45562
7.69952
7.61155
7.56762
7.54617
7.53431
7.52536
7.51647
7.50717
7.49857
7.49309
7.49441
7.50743
7.53823
7.59387
7.68191
7.80961
7.98217
8.19712
8.45292
8.74031
9.04182
9.33291
9.58517
9.77148
9.87244
9.88252
9.81336
9.69171
9.55118
9.42154
9.32235
9.26521
7.37665
7.28265
7.23408
7.20625
7.18456
7.16132
7.13283
7.0977
7.05617
7.00996
6.96246
6.91903
6.88724
6.87685
6.89941
6.96727
7.09197
7.27978
7.53873
7.86575
8.24511
8.64848
9.03738
9.36864
9.60287
9.71473
9.70201
9.58922
9.42137
9.24836
9.10813
9.0232
6.96513
6.86577
6.81166
6.77507
6.73973
6.69669
6.64097
6.56975
6.48173
6.37732
6.2591
6.13263
6.00704
5.89539
5.81439
5.78321
5.82138
5.94501
6.17791
6.53013
6.99138
7.53215
8.10451
8.64667
9.09252
9.38591
9.49731
9.43714
9.25728
9.03433
8.83886
8.71349
6.45862
6.3546
6.29357
6.24507
6.19109
6.1212
6.02862
5.90843
5.75706
5.57283
5.35689
5.11458
4.8566
4.59985
4.36734
4.18694
4.08855
4.09988
4.26008
4.60622
5.1382
5.82991
6.62715
7.44979
8.2004
8.78103
9.1176
9.18699
9.0344
8.76434
8.49733
8.31492
5.85344
5.74544
5.67578
5.61158
5.53313
5.42818
5.28766
5.10382
4.87003
4.58165
4.23768
3.84268
3.40877
2.95703
2.51782
2.12948
1.83497
1.67634
1.70248
1.99244
2.56333
3.39905
4.44544
5.60852
6.75957
7.75094
8.44605
8.7619
8.71107
8.41564
8.06186
7.80119
5.14925
5.03808
4.95796
4.87404
4.765
4.6165
4.41667
4.15427
3.81878
3.40178
2.89926
2.3144
1.66033
0.96236
0.258859
-0.39992
-0.955538
-1.34778
-1.52088
-1.35634
-0.80188
0.143221
1.43358
2.97071
4.60135
6.12744
7.33595
8.05436
8.22387
7.9556
7.50753
7.14208
4.34971
4.23629
4.14411
4.03692
3.89184
3.69229
3.4232
3.06926
2.61535
2.04852
1.36097
0.553717
-0.359662
-1.34993
-2.37061
-3.35881
-4.23919
-4.93154
-5.36183
-5.40239
-4.94024
-3.95065
-2.46011
-0.558093
1.59218
3.75203
5.62817
6.9325
7.48659
7.33961
6.80606
6.3034
3.46253
3.34798
3.24286
3.1101
2.92541
2.66988
2.32498
1.87095
1.28761
0.556849
-0.333584
-1.38557
-2.58584
-3.90192
-5.27971
-6.64379
-7.9015
-8.95121
-9.69482
-10.0089
-9.72716
-8.78388
-7.17769
-4.97356
-2.32339
0.515567
3.18165
5.25772
6.39652
6.51235
5.9282
5.24999
2.49913
2.38478
2.26706
2.1086
1.88387
1.57163
1.14981
0.594069
-0.121087
-1.01924
-2.11758
-3.42152
-4.91894
-6.57512
-8.32943
-10.0951
-11.7629
-13.2102
-14.3135
-14.9479
-14.9295
-14.1375
-12.5331
-10.1433
-7.08425
-3.599
-0.0868084
2.91448
4.85126
5.41571
4.85086
3.95559
1.4736
1.36097
1.23266
1.05145
0.790645
0.426674
-0.0659942
-0.716223
-1.55475
-2.61066
-3.90629
-5.45103
-7.23471
-9.22161
-11.3462
-13.5124
-15.5968
-17.4575
-18.948
-19.9308
-20.2305
-19.6909
-18.2211
-15.8018
-12.4921
-8.48258
-4.16179
-0.151577
2.77698
4.00724
3.57303
2.42189
0.401115
0.291793
0.157013
-0.0400852
-0.327551
-0.731386
-1.28051
-2.00807
-2.94974
-4.13983
-5.6057
-7.36093
-9.398
-11.6815
-14.143
-16.6799
-19.1578
-21.4198
-23.2998
-24.641
-25.2824
-25.0667
-23.8564
-21.5774
-18.2199
-13.8878
-8.89974
-3.89537
0.165075
2.29074
2.14555
0.714334
-0.70415
-0.808679
-0.943366
-1.14483
-1.44319
-1.86737
-2.4498
-3.2276
-4.24091
-5.52871
-7.12291
-9.04115
-11.279
-13.8027
-16.5433
-19.3947
-22.2158
-24.8391
-27.0846
-28.7776
-29.762
-29.8958
-29.0362
-27.0481
-23.8538
-19.4485
-14.0233
-8.14656
-2.89174
0.354952
0.714314
-0.985584
-1.83138
-1.93
-2.05519
-2.24407
-2.53045
-2.94749
-3.53158
-4.32375
-5.36794
-6.70694
-8.3764
-10.3975
-12.7691
-15.4599
-18.4029
-21.4919
-24.584
-27.5065
-30.0709
-32.0906
-33.4034
-33.882
-33.4042
-31.8131
-28.9596
-24.731
-19.148
-12.6089
-6.17717
-1.59049
-0.430603
-2.31715
-2.97614
-3.06804
-3.17089
-3.32376
-3.56744
-3.94179
-4.48846
-5.25242
-6.28074
-7.6188
-9.30469
-11.3622
-13.7929
-16.569
-19.6268
-22.864
-26.1403
-29.284
-32.1041
-34.4076
-36.0226
-36.8252
-36.7126
-35.5575
-33.1583
-29.3074
-23.8394
-16.8919
-9.35619
-3.19632
-0.812302
-2.67409
-4.14321
-4.22846
-4.29094
-4.37627
-4.53759
-4.82583
-5.29009
-5.97957
-6.94364
-8.2292
-9.87556
-11.9077
-14.329
-17.1137
-20.2017
-23.4952
-26.8603
-30.1323
-33.1269
-35.6542
-37.5351
-38.6325
-38.8482
-38.093
-36.1834
-32.8277
-27.6871
-20.5712
-12.0126
-3.98424
0.257894
-1.13915
-5.34981
-5.42895
-5.4264
-5.40167
-5.43049
-5.58174
-5.91506
-6.48451
-7.34103
-8.5314
-10.0941
-12.0535
-14.4122
-17.1454
-20.195
-23.4673
-26.8349
-30.1423
-33.2162
-35.8781
-37.9571
-39.3083
-39.8164
-39.388
-37.906
-35.0667
-30.3673
-23.2552
-13.7085
-3.38736
3.68336
3.58618
-6.63382
-6.70549
-6.60029
-6.40754
-6.24117
-6.19704
-6.34876
-6.75521
-7.46713
-8.52883
-9.97567
-11.8288
-14.0888
-16.7297
-19.6942
-22.892
-26.2014
-29.4755
-32.5518
-35.2642
-37.4551
-38.9837
-39.7285
-39.5706
-38.3822
-35.9343
-31.6666
-24.6214
-14.0295
-0.798007
10.5731
13.2774
-8.06934
-8.12546
-7.85443
-7.40887
-6.96679
-6.66192
-6.58237
-6.7893
-7.32965
-8.24185
-9.55515
-11.2854
-13.4291
-15.9579
-18.8145
-21.9107
-25.1297
-28.3317
-31.3632
-34.068
-36.2984
-37.9219
-38.8172
-38.8519
-37.8548
-35.5706
-31.4501
-24.3766
-12.5491
4.44063
22.2577
30.351
-9.79719
-9.80585
-9.25419
-8.42822
-7.60618
-6.96914
-6.61408
-6.59604
-6.95165
-7.70865
-8.88694
-10.4948
-12.5233
-14.9408
-17.6888
-20.6809
-23.804
-26.9241
-29.8942
-32.5643
-34.7913
-36.4448
-37.4067
-37.5308
-36.6064
-34.2816
-29.9062
-22.1267
-8.62918
13.2236
40.4166
58.1665
-12.1067
-11.9571
-10.8962
-9.48757
-8.15253
-7.1093
-6.44612
-6.19382
-6.36829
-6.98072
-8.03839
-9.54031
-11.4711
-13.7951
-16.4525
-19.3576
-22.4004
-25.451
-28.3671
-31.0014
-33.21
-34.856
-35.8092
-35.9258
-34.9371
-32.3614
-27.2859
-17.9034
-1.03199
27.2364
67.4843
101.524
-15.6568
-14.9602
-12.8965
-10.573
-8.55911
-7.0473
-6.06553
-5.59239
-5.60941
-6.10506
-7.0714
-8.49718
-10.3602
-12.6208
-15.2172
-18.0641
-21.0536
-24.0588
-26.9399
-29.5501
-31.7405
-33.3615
-34.2563
-34.2437
-33.0528
-29.9786
-23.6733
-11.5882
10.8608
49.7247
107.617
167.165
-22.1099
-19.4089
-15.2338
-11.4731
-8.61596
-6.62519
-5.36094
-4.71863
-4.63215
-5.06251
-5.98555
-7.37978
-9.21646
-11.452
-14.0229
-16.8438
-19.8081
-22.7911
-25.6541
-28.2492
-30.4208
-32.0024
-32.8026
-32.5745
-30.9564
-27.0993
-18.8711
-2.57938
28.36
83.4171
169.625
262.763
-35.7172
-25.2659
-16.8163
-11.1333
-7.4519
-5.14577
-3.79603
-3.16465
-3.12601
-3.61526
-4.59645
-6.04238
-7.92145
-10.1888
-12.781
-15.6139
-18.5827
-21.5648
-24.4229
-27.0072
-29.1548
-30.6802
-31.3513
-30.8367
-28.6001
-23.5257
-12.5577
9.43924
51.7611
129.984
266.774
457.704
-73.322
-25.6116
-10.461
-4.7683
-2.12748
-0.778685
-0.168337
-0.0959321
-0.484433
-1.30511
-2.54641
-4.19747
-6.23793
-8.63118
-11.3203
-14.2268
-17.2508
-20.2739
-23.1614
-25.7632
-27.9107
-29.402
-29.9668
-29.1868
-26.32
-19.8046
-6.06435
21.1189
73.2559
172.947
374.194
827.158
VECTORS velocity double
5.32705e-05 -5.32706e-05 0
0.000100268 6.27314e-06 0
-1.96813e-06 9.59626e-05 0
-0.000266488 0.000168557 0
-0.000653149 0.000218105 0
-0.00112302 0.000251765 0
-0.00165165 0.000276867 0
-0.00222535 0.000296827 0
-0.0028333 0.000311128 0
-0.00346104 0.000316609 0
-0.00408645 0.000308802 0
-0.00467825 0.000282999 0
-0.00519634 0.000235094 0
-0.00559382 0.000162381 0
-0.00582064 6.44396e-05 0
-0.00582919 -5.5893e-05 0
-0.00558175 -0.000191544 0
-0.00505811 -0.0003321 0
-0.00426239 -0.000463614 0
-0.00322925 -0.000569529 0
-0.00202685 -0.00063287 0
-0.000754431 -0.000639552 0
0.00046744 -0.000582319 0
0.0015143 -0.000464546 0
0.00227896 -0.000300111 0
0.00269151 -0.000112438 0
0.00273332 7.06288e-05 0
0.00243849 0.000224202 0
0.00188411 0.000330173 0
0.00118767 0.000366271 0
0.000520109 0.000301289 0
0.00010941 0.00010941 0
-1.13035e-05 -9.52378e-05 0
-0.000208244 0.000198183 0
-0.000771615 0.000569659 0
-0.00168345 0.000871212 0
-0.00286446 0.00108312 0
-0.00423725 0.00122941 0
-0.00574454 0.00133514 0
-0.00734396 0.00141167 0
-0.00899577 0.00145606 0
-0.0106521 0.0014557 0
-0.0122504 0.00139347 0
-0.0137123 0.00125205 0
-0.0149456 0.00101743 0
-0.01585 0.000681968 0
-0.0163259 0.000247506 0
-0.0162848 -0.000271451 0
-0.0156638 -0.000844477 0
-0.0144361 -0.00143055 0
-0.0126204 -0.00197653 0
-0.0102898 -0.00242034 0
-0.00757611 -0.00269817 0
-0.00466744 -0.00275535 0
-0.0017962 -0.00255962 0
0.000784261 -0.00211457 0
0.00283702 -0.0014675 0
0.00418433 -0.000704902 0
0.00474203 6.35844e-05 0
0.00454013 0.000727973 0
0.00371707 0.00120383 0
0.00250468 0.00140145 0
0.00122779 0.00121056 0
0.000309899 0.000528719 0
-0.00014184 5.79053e-05 0
-0.00074315 0.000843291 0
-0.00193584 0.00168061 0
-0.00360904 0.00234529 0
-0.00563579 0.00281681 0
-0.00791147 0.0031442 0
-0.010358 0.0033742 0
-0.0129119 0.00352589 0
-0.0155088 0.00359058 0
-0.0180726 0.00354124 0
-0.0205096 0.00334329 0
-0.0227091 0.00296358 0
-0.0245476 0.00237768 0
-0.0258973 0.00157584 0
-0.0266362 0.0005684 0
-0.0266605 -0.000609071 0
-0.0258969 -0.00189154 0
-0.0243124 -0.0031957 0
-0.0219239 -0.00441551 0
-0.0188087 -0.00542715 0
-0.0151124 -0.00610135 0
-0.0110511 -0.00632222 0
-0.00690373 -0.00601131 0
-0.00299314 -0.00515394 0
0.000348584 -0.00382263 0
0.00283364 -0.00218214 0
0.00428182 -0.000465056 0
0.00466603 0.00107429 0
0.00412443 0.00222217 0
0.00293743 0.0027825 0
0.00151072 0.00253311 0
0.00039808 0.0012367 0
-0.000300148 0.000499893 0
-0.00138473 0.00208719 0
-0.00330485 0.00354952 0
-0.00581728 0.00466201 0
-0.00873436 0.00544392 0
-0.0119269 0.00598526 0
-0.0153042 0.00635704 0
-0.0187905 0.00658323 0
-0.0223057 0.00664538 0
-0.0257545 0.00649902 0
-0.0290227 0.00609075 0
-0.0319795 0.0053723 0
-0.0344833 0.00431131 0
-0.0363911 0.00289967 0
-0.0375678 0.00116022 0
-0.037897 -0.000847418 0
-0.0372886 -0.00302517 0
-0.035687 -0.00524813 0
-0.0330828 -0.0073558 0
-0.0295277 -0.00915713 0
-0.0251487 -0.0104467 0
-0.0201564 -0.0110305 0
-0.0148465 -0.0107602 0
-0.00958765 -0.00957445 0
-0.00479152 -0.00753997 0
-0.000861551 -0.00487983 0
0.00188321 -0.0019603 0
0.00329953 0.000768999 0
0.00347756 0.00289104 0
0.00271462 0.00406358 0
0.00147389 0.00391948 0
0.000401038 0.00203582 0
-0.00047313 0.00127317 0
-0.00208222 0.00400758 0
-0.00478148 0.00624851 0
-0.00817672 0.00787069 0
-0.0120147 0.00899028 0
-0.0161448 0.00976158 0
-0.0204713 0.0102845 0
-0.0249142 0.010585 0
-0.0293864 0.0106311 0
-0.0337825 0.0103582 0
-0.0379762 0.00969341 0
-0.0418236 0.00857384 0
-0.0451702 0.00696023 0
-0.0478583 0.00484661 0
-0.0497356 0.00226726 0
-0.0506626 -0.000698295 0
-0.0505187 -0.00392656 0
-0.0492081 -0.00725886 0
-0.0466744 -0.010483 0
-0.042922 -0.0133374 0
-0.0380372 -0.0155303 0
-0.0322054 -0.0167712 0
-0.0257202 -0.0168146 0
-0.0189829 -0.0155161 0
-0.0124817 -0.0128956 0
-0.00674239 -0.00919344 0
-0.00224455 -0.00488929 0
0.000689006 -0.000651899 0
0.00201893 0.00280398 0
0.00202588 0.00490663 0
0.00123037 0.00511267 0
0.00035449 0.00279134 0
-0.00065524 0.00240154 0
-0.00280989 0.00664295 0
-0.00630992 0.00981243 0
-0.0106061 0.0119982 0
-0.0153833 0.013478 0
-0.0204761 0.0144969 0
-0.0257899 0.0151894 0
-0.031248 0.0155811 0
-0.0367631 0.0156223 0
-0.0422252 0.0152252 0
-0.0474999 0.0142949 0
-0.0524322 0.0127521 0
-0.0568515 0.0105479 0
-0.0605791 0.00767459 0
-0.0634346 0.00417209 0
-0.0652428 0.000132018 0
-0.0658402 -0.00430337 0
-0.0650812 -0.0089516 0
-0.062851 -0.0135542 0
-0.0590938 -0.0177759 0
-0.053841 -0.0212293 0
-0.0472348 -0.0235102 0
-0.0395479 -0.0242476 0
-0.0311953 -0.0231729 0
-0.0227291 -0.0202062 0
-0.0148022 -0.0155491 0
-0.00808266 -0.00975099 0
-0.00311318 -0.00369323 0
-0.000148793 0.001551 0
0.000986687 0.00501719 0
0.000859412 0.00592491 0
0.000284282 0.00343011 0
-0.000841892 0.00389867 0
-0.00354752 0.0100061 0
-0.00784714 0.0142489 0
-0.0130421 0.0170528 0
-0.0187647 0.0189232 0
-0.0248423 0.0202221 0
-0.0311878 0.0211234 0
-0.0377321 0.0216495 0
-0.0443909 0.0217278 0
-0.0510519 0.0212427 0
-0.0575725 0.0200728 0
-0.063783 0.0181169 0
-0.0694912 0.0153105 0
-0.0744885 0.0116369 0
-0.078557 0.00713386 0
-0.0814771 0.00189842 0
-0.083037 -0.00391244 0
-0.0830405 -0.010098 0
-0.0813149 -0.0163635 0
-0.0777386 -0.0223 0
-0.0722775 -0.0274191 0
-0.0650138 -0.0311904 0
-0.0561743 -0.0330938 0
-0.0461572 -0.0326964 0
-0.0355485 -0.0297578 0
-0.0251099 -0.0243631 0
-0.0157115 -0.0170549 0
-0.00817758 -0.00889275 0
-0.00305404 -0.00133741 0
-0.000375042 0.00409112 0
0.000398488 0.00620472 0
0.000204762 0.00391916 0
-0.00102704 0.0057676 0
-0.00427177 0.0140875 0
-0.00934688 0.0195422 0
-0.0154166 0.0230241 0
-0.0220723 0.0253302 0
-0.0291414 0.0269618 0
-0.0365475 0.0281352 0
-0.0442307 0.0288652 0
-0.0521102 0.0290504 0
-0.0600697 0.0285407 0
-0.0679559 0.0271816 0
-0.0755802 0.0248429 0
-0.082724 0.0214365 0
-0.0891443 0.0169286 0
-0.094582 0.0113483 0
-0.0987715 0.00479348 0
-0.101453 -0.00256651 0
-0.102386 -0.0105072 0
-0.101351 -0.0187152 0
-0.0981611 -0.0267141 0
-0.092711 -0.0339163 0
-0.0850054 -0.0396625 0
-0.0751969 -0.0432698 0
-0.0636261 -0.0441083 0
-0.0508637 -0.041717 0
-0.0377346 -0.0359716 0
-0.0252891 -0.0272903 0
-0.0146678 -0.0168126 0
-0.00681673 -0.00639215 0
-0.00212219 0.00177232 0
-0.000164963 0.00579276 0
0.00011798 0.0042419 0
-0.00120226 0.0079969 0
-0.00495231 0.018853 0
-0.0107514 0.0256509 0
-0.017644 0.0298778 0
-0.0251915 0.0326798 0
-0.0332255 0.0347153 0
-0.041681 0.0362434 0
-0.050506 0.0372653 0
-0.0596203 0.0376441 0
-0.0689018 0.037188 0
-0.0781836 0.0357022 0
-0.0872568 0.0330199 0
-0.0958758 0.0290222 0
-0.103765 0.0236523 0
-0.110628 0.0169255 0
-0.11616 0.00893788 0
-0.12006 -0.000129396 0
-0.122054 -0.0100174 0
-0.121884 -0.0204102 0
-0.119312 -0.0307802 0
-0.11416 -0.0404531 0
-0.106341 -0.0486497 0
-0.0959069 -0.0545254 0
-0.0830944 -0.0572359 0
-0.0683966 -0.0560496 0
-0.0526281 -0.0505365 0
-0.0369563 -0.0408426 0
-0.0228236 -0.0280142 0
-0.0116645 -0.0142007 0
-0.0043872 -0.00239101 0
-0.000874852 0.00448652 0
1.52327e-05 0.00437511 0
-0.00135673 0.0105559 0
-0.00555116 0.0242385 0
-0.0119891 0.0325025 0
-0.019617 0.0375467 0
-0.027974 0.0409154 0
-0.0368965 0.0434362 0
-0.0463282 0.0454096 0
-0.0562213 0.046817 0
-0.0664938 0.0474791 0
-0.0770154 0.0471561 0
-0.0876061 0.0456066 0
-0.0980392 0.0426218 0
-0.108047 0.0380473 0
-0.11733 0.0317993 0
-0.125566 0.0238772 0
-0.132422 0.0143744 0
-0.137571 0.00348376 0
-0.140707 -0.00850075 0
-0.141553 -0.0212514 0
-0.139839 -0.0342242 0
-0.135321 -0.0466806 0
-0.127817 -0.0577445 0
-0.117253 -0.0664291 0
-0.103719 -0.0716785 0
-0.0875613 -0.0724622 0
-0.0694931 -0.0679606 0
-0.0506954 -0.0578882 0
-0.032835 -0.0429617 0
-0.0178539 -0.0253934 0
-0.00736899 -0.00896067 0
-0.00182712 0.00200197 0
-0.000123943 0.0042664 0
-0.00147785 0.0133905 0
-0.00602472 0.0301452 0
-0.0129784 0.0399874 0
-0.0212116 0.0459228 0
-0.0302457 0.0499304 0
-0.0399188 0.0530167 0
-0.050178 0.05552 0
-0.0609753 0.0573971 0
-0.0722247 0.0584209 0
-0.0837882 0.0582995 0
-0.0954759 0.0567416 0
-0.10705 0.0534937 0
-0.118231 0.0483643 0
-0.128707 0.0412417 0
-0.138146 0.0321093 0
-0.146204 0.0210571 0
-0.152543 0.00828885 0
-0.156836 -0.00587671 0
-0.158802 -0.0210636 0
-0.158167 -0.0367607 0
-0.154635 -0.0521954 0
-0.147935 -0.066433 0
-0.137857 -0.0783834 0
-0.124305 -0.0868091 0
-0.107415 -0.0903799 0
-0.0876941 -0.0878314 0
-0.0662096 -0.0782996 0
-0.0447169 -0.0619034 0
-0.0255955 -0.0405541 0
-0.0112927 -0.0185877 0
-0.0031334 -0.00207217 0
-0.000319251 0.00382321 0
-0.00155268 0.016421 0
-0.00632833 0.0364372 0
-0.0136353 0.0479561 0
-0.0222995 0.0548514 0
-0.0318259 0.0595624 0
-0.0420473 0.0632792 0
-0.0529079 0.0663772 0
-0.0643556 0.068785 0
-0.0762992 0.070226 0
-0.0885957 0.0703546 0
-0.101051 0.0688295 0
-0.113425 0.0653534 0
-0.125439 0.0596989 0
-0.136784 0.0517285 0
-0.147133 0.0414108 0
-0.156152 0.0288332 0
-0.16351 0.0142091 0
-0.168891 -0.00212262 0
-0.172022 -0.0197207 0
-0.172631 -0.0381292 0
-0.170409 -0.056582 0
-0.165016 -0.0741388 0
-0.156105 -0.0896676 0
-0.143374 -0.101807 0
-0.126685 -0.108962 0
-0.106247 -0.109408 0
-0.0828664 -0.101589 0
-0.0582107 -0.0847628 0
-0.0349375 -0.0600892 0
-0.0163265 -0.0319665 0
-0.00490721 -0.00827201 0
-0.000601133 0.00290282 0
-0.00156978 0.0195435 0
-0.00642234 0.0429429 0
-0.0138847 0.0562197 0
-0.0227655 0.0641328 0
-0.0325514 0.0695933 0
-0.0430617 0.0739799 0
-0.0542304 0.0777057 0
-0.0659983 0.0806721 0
-0.0782696 0.0825538 0
-0.0909004 0.0829541 0
-0.1037 0.0814844 0
-0.116434 0.0778071 0
-0.128839 0.0716633 0
-0.140624 0.0628938 0
-0.151485 0.0514562 0
-0.161116 0.0374383 0
-0.169219 0.0210642 0
-0.175509 0.00269432 0
-0.179734 -0.0171822 0
-0.181656 -0.0381366 0
-0.18099 -0.0594627 0
-0.17736 -0.080281 0
-0.170298 -0.0994983 0
-0.159289 -0.115716 0
-0.14388 -0.127151 0
-0.123891 -0.131646 0
-0.0997259 -0.126896 0
-0.0727647 -0.111072 0
-0.045714 -0.0841035 0
-0.0225523 -0.0497249 0
-0.00725159 -0.0172335 0
-0.000997512 0.00130418 0
-0.00152129 0.0226345 0
-0.00627866 0.0494618 0
-0.013672 0.0645565 0
-0.0225244 0.0735293 0
-0.0323017 0.0797602 0
-0.0427998 0.0848215 0
-0.0539361 0.0891692 0
-0.0656421 0.0926824 0
-0.0778191 0.0949919 0
-0.090327 0.0956547 0
-0.102985 0.0942406 0
-0.115577 0.0903776 0
-0.127861 0.0837817 0
-0.139579 0.0742786 0
-0.150469 0.061822 0
-0.16027 0.0465053 0
-0.168737 0.0285669 0
-0.175642 0.00838672 0
-0.180769 -0.0135221 0
-0.18395 -0.0366948 0
-0.18497 -0.0605504 0
-0.183453 -0.0843403 0
-0.178847 -0.107106 0
-0.170437 -0.127528 0
-0.157438 -0.143747 0
-0.139213 -0.153264 0
-0.115631 -0.153025 0
-0.087579 -0.139957 0
-0.0575385 -0.11231 0
-0.0299313 -0.0722875 0
-0.0102412 -0.0296617 0
-0.00153479 -0.00122813 0
-0.00140467 0.0255605 0
-0.00588652 0.0557751 0
-0.0129735 0.0727235 0
-0.0215368 0.0827781 0
-0.0310191 0.0897709 0
-0.0411838 0.0954736 0
-0.0519259 0.100395 0
-0.0631659 0.104402 0
-0.0748052 0.107089 0
-0.086712 0.107973 0
-0.0987224 0.10659 0
-0.110645 0.102542 0
-0.122271 0.0955269 0
-0.133382 0.0853634 0
-0.143766 0.0720104 0
-0.153225 0.055577 0
-0.161586 0.0363234 0
-0.168701 0.0146505 0
-0.17444 -0.00891963 0
-0.178714 -0.0338433 0
-0.1814 -0.0596962 0
-0.182182 -0.0859291 0
-0.180481 -0.111824 0
-0.175424 -0.136277 0
-0.165909 -0.157513 0
-0.150803 -0.172829 0
-0.129333 -0.17851 0
-0.101692 -0.170166 0
-0.0698414 -0.143992 0
-0.0382947 -0.099759 0
-0.0139096 -0.0462653 0
-0.00223881 -0.00500173 0
-0.00122392 0.0281891 0
-0.00525635 0.0616608 0
-0.0118029 0.0804713 0
-0.0198182 0.0916089 0
-0.0287209 0.099325 0
-0.0382347 0.105598 0
-0.0482266 0.111005 0
-0.0586062 0.115412 0
-0.0692776 0.118389 0
-0.0801236 0.119425 0
-0.0910032 0.118028 0
-0.101757 0.113781 0
-0.112213 0.106371 0
-0.122201 0.0956194 0
-0.131564 0.081501 0
-0.140172 0.0641524 0
-0.147933 0.0438701 0
-0.154802 0.0210886 0
-0.160767 -0.00365418 0
-0.165837 -0.0297655 0
-0.169992 -0.0569325 0
-0.173042 -0.0848611 0
-0.174455 -0.11318 0
-0.173277 -0.141155 0
-0.168139 -0.167288 0
-0.157418 -0.188881 0
-0.139626 -0.20172 0
-0.114086 -0.200137 0
-0.0819381 -0.178019 0
-0.0473686 -0.131849 0
-0.018268 -0.0676614 0
-0.00315199 -0.0103925 0
-0.000989874 0.0304029 0
-0.00442123 0.0669107 0
-0.0102147 0.0875614 0
-0.0174425 0.0997619 0
-0.0255028 0.108135 0
-0.0340734 0.114873 0
-0.0429902 0.120639 0
-0.0521518 0.125319 0
-0.0614696 0.128471 0
-0.0708464 0.129566 0
-0.0801721 0.128093 0
-0.0893253 0.123623 0
-0.0981803 0.11584 0
-0.106617 0.104575 0
-0.114533 0.0898252 0
-0.121866 0.071768 0
-0.128603 0.0507528 0
-0.134796 0.0272685 0
-0.140553 0.00188797 0
-0.145999 -0.0247926 0
-0.151252 -0.0524967 0
-0.156291 -0.081209 0
-0.16072 -0.11099 0
-0.163613 -0.14163 0
-0.163435 -0.172128 0
-0.158134 -0.200062 0
-0.145484 -0.220981 0
-0.123799 -0.228101 0
-0.0931078 -0.212893 0
-0.0568131 -0.167838 0
-0.0233219 -0.0942633 0
-0.00434198 -0.0178865 0
-0.000719714 0.0321125 0
-0.00343596 0.0713488 0
-0.00830222 0.093783 0
-0.01454 0.107006 0
-0.0215336 0.115945 0
-0.0289126 0.123012 0
-0.036479 0.128983 0
-0.0441225 0.133781 0
-0.051766 0.136971 0
-0.0593399 0.138017 0
-0.0667728 0.1364 0
-0.0739908 0.131686 0
-0.0809211 0.123561 0
-0.0874993 0.111868 0
-0.0936814 0.096631 0
-0.0994599 0.0780733 0
-0.104884 0.0566088 0
-0.110079 0.0328003 0
-0.115245 0.00727973 0
-0.120628 -0.019356 0
-0.126492 -0.0468155 0
-0.133014 -0.0753302 0
-0.140024 -0.10543 0
-0.146764 -0.137557 0
-0.151698 -0.171445 0
-0.152471 -0.205274 0
-0.146168 -0.234722 0
-0.130014 -0.252199 0
-0.102666 -0.246835 0
-0.0662638 -0.206594 0
-0.0290785 -0.126184 0
-0.00589791 -0.0281264 0
-0.000435748 0.0332679 0
-0.00237416 0.074848 0
-0.00619457 0.0989705 0
-0.011291 0.113153 0
-0.0170449 0.122546 0
-0.0230389 0.129784 0
-0.0290413 0.13578 0
-0.034935 0.140521 0
-0.0406596 0.143599 0
-0.0461804 0.144484 0
-0.0514735 0.14266 0
-0.056522 0.137694 0
-0.0613157 0.129278 0
-0.0658547 0.117269 0
-0.070156 0.101714 0
-0.0742644 0.0828775 0
-0.0782701 0.0612346 0
-0.0823307 0.0374295 0
-0.0866916 0.0121781 0
-0.0916764 -0.013887 0
-0.0976681 -0.0404284 0
-0.105031 -0.0678331 0
-0.113889 -0.0970588 0
-0.123814 -0.129263 0
-0.133486 -0.165133 0
-0.140471 -0.203828 0
-0.141309 -0.241633 0
-0.132133 -0.270619 0
-0.110017 -0.277877 0
-0.0753628 -0.246609 0
-0.0355403 -0.163177 0
-0.0079147 -0.041939 0
-0.000163888 0.0338676 0
-0.00132458 0.0773474 0
-0.00405078 0.103018 0
-0.00791768 0.118069 0
-0.0123179 0.127784 0
-0.0167936 0.135016 0
-0.0210831 0.14084 0
-0.0250658 0.145337 0
-0.0287037 0.148145 0
-0.0320029 0.148757 0
-0.0349948 0.146671 0
-0.0377276 0.141463 0
-0.0402628 0.132837 0
-0.0426747 0.12066 0
-0.0450508 0.104999 0
-0.0474941 0.0861437 0
-0.0501301 0.06461 0
-0.0531219 0.0411066 0
-0.0566973 0.0164372 0
-0.0611796 -0.0086791 0
-0.0669837 -0.0338405 0
-0.0745912 -0.0594509 0
-0.0844207 -0.086753 0
-0.0965004 -0.117564 0
-0.109994 -0.153666 0
-0.122714 -0.19559 0
-0.130928 -0.240818 0
-0.129791 -0.281748 0
-0.11467 -0.303984 0
-0.0837664 -0.286061 0
-0.0426888 -0.204626 0
-0.0104756 -0.0603293 0
6.68935e-05 0.0339646 0
-0.00038889 0.0788669 0
-0.00205586 0.105891 0
-0.0046771 0.121683 0
-0.00767056 0.131563 0
-0.0105523 0.138594 0
-0.0130394 0.144038 0
-0.0150146 0.148097 0
-0.0164674 0.150476 0
-0.0174495 0.150708 0
-0.0180515 0.148315 0
-0.0183912 0.142892 0
-0.0186073 0.13416 0
-0.0188545 0.121997 0
-0.0193002 0.106484 0
-0.020118 0.08792 0
-0.0214837 0.0668353 0
-0.0235737 0.0439631 0
-0.0265749 0.0201573 0
-0.0307174 -0.00377436 0
-0.0363221 -0.0273364 0
-0.0438524 -0.0508171 0
-0.0538991 -0.0755105 0
-0.0669641 -0.103662 0
-0.0829275 -0.138112 0
-0.100265 -0.181087 0
-0.115415 -0.231957 0
-0.122841 -0.28432 0
-0.116211 -0.323163 0
-0.0911186 -0.322878 0
-0.050461 -0.249544 0
-0.0136404 -0.0844453 0
0.000220579 0.0336771 0
0.000313354 0.0795174 0
-0.000420997 0.107642 0
-0.00185687 0.123989 0
-0.00344756 0.133841 0
-0.00470645 0.140457 0
-0.00534762 0.145303 0
-0.00526881 0.148728 0
-0.00449347 0.150523 0
-0.00312171 0.150272 0
-0.00130419 0.147535 0
0.000770894 0.141936 0
0.00288727 0.133215 0
0.00480803 0.121268 0
0.00628417 0.106183 0
0.00706485 0.0882586 0
0.00691067 0.0680167 0
0.00560878 0.0461736 0
0.00298489 0.0235719 0
-0.00110055 0.00103902 0
-0.00678263 -0.0208631 0
-0.0143144 -0.0422285 0
-0.0242257 -0.064141 0
-0.0373166 -0.088876 0
-0.0542425 -0.120008 0
-0.0745477 -0.161547 0
-0.0954569 -0.215438 0
-0.111288 -0.277581 0
-0.114227 -0.333592 0
-0.096978 -0.35479 0
-0.0587047 -0.296562 0
-0.017433 -0.115519 0
0.000271321 0.0331852 0
0.000655072 0.0795328 0
0.000606501 0.10841 0
0.000223263 0.125041 0
-1.17184e-05 0.134615 0
0.000355723 0.140574 0
0.00158495 0.144598 0
0.00374576 0.147194 0
0.0067712 0.148256 0
0.0105039 0.147434 0
0.0147269 0.144333 0
0.019181 0.13861 0
0.0235755 0.130031 0
0.0275969 0.11851 0
0.0309209 0.104141 0
0.0332263 0.0872146 0
0.0342148 0.0682263 0
0.0336358 0.0478448 0
0.0313134 0.0268469 0
0.0271698 0.005993 0
0.021213 -0.0141781 0
0.0134302 -0.0335989 0
0.00356911 -0.0529981 0
-0.00911511 -0.0742438 0
-0.0257644 -0.101065 0
-0.0471364 -0.138813 0
-0.071939 -0.192461 0
-0.0951963 -0.261471 0
-0.10819 -0.333769 0
-0.100687 -0.379366 0
-0.0670878 -0.343859 0
-0.0218148 -0.154767 0
0.000176543 0.0327373 0
0.00049314 0.0792803 0
0.000764267 0.10844 0
0.00121684 0.124942 0
0.00226828 0.133898 0
0.00427395 0.138918 0
0.007411 0.141888 0
0.0116825 0.143472 0
0.016961 0.143674 0
0.0230277 0.142216 0
0.0296013 0.138753 0
0.0363568 0.132979 0
0.0429373 0.124687 0
0.0489648 0.113806 0
0.0540545 0.100432 0
0.0578329 0.0848401 0
0.0599618 0.0674834 0
0.0601685 0.04896 0
0.0582754 0.0299472 0
0.054221 0.0110908 0
0.0480478 -0.00714587 0
0.0398471 -0.0246477 0
0.029619 -0.0418601 0
0.0170751 -0.0601537 0
0.0012624 -0.0826934 0
-0.0194815 -0.115069 0
-0.0458247 -0.165059 0
-0.074616 -0.236824 0
-0.0973213 -0.322716 0
-0.101178 -0.394065 0
-0.0749354 -0.389002 0
-0.0266256 -0.203207 0
-0.000143346 0.0327041 0
-0.00040522 0.0792587 0
-0.000287355 0.108072 0
0.000738914 0.12383 0
0.00300148 0.131695 0
0.00667845 0.135438 0
0.0117898 0.137119 0
0.0182222 0.137536 0
0.0257648 0.136789 0
0.0341328 0.134667 0
0.0429866 0.130875 0
0.0519463 0.125142 0
0.0606035 0.117286 0
0.0685335 0.107249 0
0.0753114 0.0951207 0
0.0805334 0.0811506 0
0.0838425 0.0657349 0
0.0849587 0.0493857 0
0.0837055 0.0326678 0
0.0800229 0.0161072 0
0.0739546 7.92482e-05 0
0.0656086 -0.0153262 0
0.0550799 -0.0304248 0
0.042311 -0.0462762 0
0.026851 -0.0652983 0
0.00747339 -0.0923425 0
-0.0180022 -0.135967 0
-0.0495335 -0.205594 0
-0.0804702 -0.300305 0
-0.0967266 -0.396364 0
-0.0809649 -0.428707 0
-0.0314719 -0.261304 0
-0.00081615 0.0336636 0
-0.00240388 0.0801488 0
-0.00304299 0.107703 0
-0.00169185 0.121822 0
0.0017827 0.127967 0
0.00723908 0.130034 0
0.0144513 0.130201 0
0.0231361 0.129337 0
0.0329778 0.127603 0
0.0436245 0.124838 0
0.054689 0.120786 0
0.0657532 0.115208 0
0.0763768 0.10794 0
0.0861103 0.0989313 0
0.0945113 0.0882591 0
0.101167 0.0761343 0
0.105721 0.0628879 0
0.107899 0.0489386 0
0.10753 0.0347371 0
0.104557 0.0206938 0
0.0990237 0.00709426 0
0.0910353 -0.00600684 0
0.0807039 -0.018884 0
0.0680596 -0.0324036 0
0.0528812 -0.0485325 0
0.0344274 -0.071277 0
0.0110347 -0.108164 0
-0.0198387 -0.170992 0
-0.056072 -0.267736 0
-0.0846778 -0.38407 0
-0.0828889 -0.458551 0
-0.0355328 -0.328309 0
-0.00208719 0.036567 0
-0.00608958 0.0828356 0
-0.00814198 0.107708 0
-0.00659072 0.118915 0
-0.00173109 0.12254 0
0.00576557 0.122508 0
0.0153053 0.120975 0
0.0263973 0.118786 0
0.038612 0.116098 0
0.0515403 0.112768 0
0.0647652 0.108566 0
0.0778528 0.103275 0
0.0903553 0.096746 0
0.101822 0.0889252 0
0.111816 0.0798696 0
0.119939 0.0697448 0
0.125852 0.0588105 0
0.1293 0.0473904 0
0.130128 0.035826 0
0.128288 0.0244183 0
0.123828 0.0133629 0
0.116868 0.00267338 0
0.107541 -0.00790615 0
0.0958911 -0.0190874 0
0.0817499 -0.0325291 0
0.0645639 -0.0516408 0
0.0430652 -0.0829087 0
0.0149326 -0.137241 0
-0.0221773 -0.228144 0
-0.0612212 -0.356013 0
-0.0768558 -0.472763 0
-0.0372338 -0.401076 0
-0.00440034 0.0430545 0
-0.0123533 0.0883034 0
-0.0162658 0.108205 0
-0.014209 0.114809 0
-0.007425 0.115001 0
0.00262507 0.112499 0
0.0148866 0.109182 0
0.0286472 0.105727 0
0.0433852 0.102205 0
0.0586628 0.0984552 0
0.0740633 0.094254 0
0.0891658 0.0893976 0
0.103543 0.0837441 0
0.11677 0.0772334 0
0.128443 0.0698944 0
0.138197 0.0618425 0
0.145734 0.0532637 0
0.150833 0.0443895 0
0.153373 0.035459 0
0.153324 0.0266742 0
0.150743 0.018148 0
0.145748 0.00984422 0
0.138488 0.00150991 0
0.129057 -0.00742339 0
0.117281 -0.018276 0
0.102583 -0.03401 0
0.0837766 -0.0602339 0
0.0585826 -0.106589 0
0.0237125 -0.186816 0
-0.0213246 -0.31326 0
-0.0567473 -0.464458 0
-0.0337201 -0.47203 0
-0.00839544 0.0558503 0
-0.0220362 0.0971013 0
-0.0271786 0.108462 0
-0.0231755 0.108492 0
-0.0131031 0.104462 0
0.000553352 0.0993321 0
0.0162914 0.0943493 0
0.0332493 0.0898407 0
0.0508862 0.0857159 0
0.0687932 0.0817597 0
0.0865998 0.0777425 0
0.103938 0.0734685 0
0.120435 0.0687989 0
0.135724 0.0636621 0
0.149461 0.0580566 0
0.161341 0.0520451 0
0.171125 0.0457418 0
0.178644 0.0392918 0
0.183818 0.0328434 0
0.186642 0.0265144 0
0.187178 0.0203533 0
0.185522 0.0142905 0
0.181769 0.00807645 0