# vtk DataFile Version 2.0
Lid-driven cavity
ASCII
DATASET STRUCTURED_POINTS
DIMENSIONS 32 32 1
ORIGIN 0.015625 0.015625 0
SPACING 0.03125 0.03125 1
POINT_DATA 1024
SCALARS pressure double 1
LOOKUP_TABLE default
-0.308041
-0.30834
-0.304439
-0.295756
-0.282293
-0.264191
-0.241624
-0.214792
-0.183922
-0.149276
-0.111152
-0.0698864
-0.0258518
0.0205398
0.0688395
0.118562
0.169188
0.220177
0.270976
0.320987
0.369597
0.416184
0.460128
0.500826
0.537697
0.570198
0.597838
0.620183
0.636876
0.647673
0.652595
0.652428
-0.307747
-0.308054
-0.303884
-0.295058
-0.281566
-0.263494
-0.240987
-0.21423
-0.183445
-0.14889
-0.110861
-0.0696917
-0.0257539
0.0205429
0.0687516
0.118388
0.168934
0.219849
0.270584
0.320541
0.369105
0.415654
0.459568
0.50024
0.537091
0.569576
0.597207
0.619563
0.636314
0.647268
0.65246
0.652255
-0.311794
-0.312398
-0.3082
-0.299271
-0.285663
-0.26747
-0.244825
-0.217908
-0.186934
-0.15216
-0.113878
-0.0724216
-0.0281603
0.0184971
0.067104
0.117176
0.168194
0.219611
0.270873
0.321373
0.37049
0.417591
0.462047
0.503239
0.540574
0.573497
0.601509
0.624183
0.641187
0.652315
0.65753
0.656972
-0.320993
-0.321795
-0.317593
-0.308536
-0.294721
-0.276252
-0.253268
-0.225944
-0.194496
-0.159178
-0.120282
-0.0781404
-0.0331226
0.0143619
0.0638651
0.114901
0.166946
0.219444
0.271822
0.323462
0.373728
0.42197
0.467538
0.509789
0.548107
0.581913
0.610686
0.633979
0.651439
0.662836
0.668091
0.667298
-0.335596
-0.336512
-0.332259
-0.323007
-0.308869
-0.289963
-0.266429
-0.238446
-0.20623
-0.170035
-0.130155
-0.0869204
-0.0407043
0.0080823
0.058988
0.111522
0.165153
0.219315
0.273406
0.326793
0.378816
0.428801
0.476063
0.519928
0.559741
0.594889
0.624813
0.649037
0.667178
0.678986
0.684367
0.683435
-0.355756
-0.356748
-0.352389
-0.342855
-0.328268
-0.308752
-0.284453
-0.255554
-0.222271
-0.184861
-0.14362
-0.0988814
-0.0510197
-0.000449995
0.0523711
0.106945
0.162733
0.219149
0.275566
0.331326
0.385739
0.438093
0.487664
0.533727
0.575579
0.612555
0.644049
0.669539
0.68861
0.70099
0.70659
0.705556
-0.381657
-0.382717
-0.378199
-0.368289
-0.353119
-0.332817
-0.307534
-0.277456
-0.242805
-0.20384
-0.160859
-0.1142
-0.0642414
-0.0114024
0.043854
0.101021
0.159546
0.218826
0.278204
0.336991
0.394459
0.44985
0.502385
0.551277
0.595758
0.635093
0.668614
0.69574
0.716015
0.729145
0.735049
0.733915
-0.413543
-0.414674
-0.409949
-0.399571
-0.383679
-0.362409
-0.335918
-0.304398
-0.268073
-0.227208
-0.182106
-0.133109
-0.0805978
-0.0249984
0.0332204
0.0935424
0.155402
0.218178
0.281179
0.343682
0.404914
0.464059
0.52027
0.572683
0.620443
0.66273
0.698789
0.727965
0.749748
0.76382
0.770113
0.768865
-0.451724
-0.452936
-0.447958
-0.437014
-0.420259
-0.397835
-0.369909
-0.336676
-0.298369
-0.255258
-0.207651
-0.155893
-0.100372
-0.0415168
0.0201982
0.0842487
0.150057
0.216982
0.284301
0.351251
0.417006
0.480684
0.541354
0.598057
0.64983
0.695738
0.734915
0.766611
0.790247
0.805472
0.81224
0.810853
-0.496579
-0.497882
-0.492604
-0.480996
-0.463231
-0.439463
-0.409866
-0.374646
-0.334043
-0.288335
-0.237835
-0.182895
-0.123903
-0.0612938
0.0044562
0.072817
0.143202
0.214953
0.287317
0.359489
0.430587
0.499651
0.565652
0.627512
0.684132
0.73443
0.777397
0.812156
0.838037
0.854654
0.861987
0.860425
-0.548556
-0.549964
-0.544336
-0.53196
-0.513031
-0.487719
-0.45621
-0.41872
-0.375502
-0.326841
-0.273059
-0.214511
-0.151589
-0.0847268
-0.0144021
0.0588554
0.134455
0.211728
0.289897
0.368114
0.445439
0.520827
0.593135
0.66114
0.723571
0.779158
0.826704
0.865164
0.893747
0.912022
0.920015
0.918232
-0.608177
-0.609705
-0.603676
-0.590421
-0.570165
-0.543098
-0.509422
-0.46937
-0.423208
-0.371233
-0.313775
-0.251195
-0.183886
-0.112278
-0.0368433
0.0418942
0.123349
0.206853
0.291611
0.376741
0.461247
0.543992
0.623705
0.69899
0.768361
0.830305
0.883373
0.926294
0.958117
0.978356
0.987105
0.985039
-0.676054
-0.677718
-0.671228
-0.656972
-0.635211
-0.606161
-0.570049
-0.527128
-0.477681
-0.422022
-0.360493
-0.293458
-0.221311
-0.144475
-0.0634091
0.0213785
0.10932
0.199761
0.291908
0.384855
0.477559
0.568797
0.657154
0.741032
0.818679
0.888264
0.948001
0.996307
1.03201
1.05457
1.06417
1.06173
-0.752889
-0.754707
-0.747689
-0.732294
-0.708829
-0.677547
-0.638706
-0.592585
-0.539496
-0.479774
-0.413772
-0.341863
-0.264439
-0.181911
-0.0947177
-0.00333817
0.0916926
0.189755
0.290083
0.391769
0.493744
0.594708
0.693104
0.787099
0.874616
0.953411
1.02124
1.07608
1.11645
1.14172
1.15225
1.14931
-0.839498
-0.841491
-0.833864
-0.817167
-0.79177
-0.757973
-0.716076
-0.666398
-0.609285
-0.5451
-0.474219
-0.397022
-0.313897
-0.225241
-0.131461
-0.0329952
0.0696761
0.175994
0.285256
0.396587
0.508928
0.620936
0.73092
0.836798
0.9361
1.02605
1.10376
1.16659
1.21261
1.24105
1.25256
1.24892
-0.936828
-0.939017
-0.930681
-0.912487
-0.884886
-0.848244
-0.802917
-0.74928
-0.687726
-0.618657
-0.542477
-0.45958
-0.370351
-0.275167
-0.174397
-0.0684194
0.0423604
0.157477
0.276336
0.398149
0.521925
0.646334
0.769593
0.889378
1.00277
1.1063
1.19621
1.26894
1.32185
1.35398
1.36644
1.36181
-1.04599
-1.0484
-1.03922
-1.01929
-0.989148
-0.949262
-0.900066
-0.842006
-0.775542
-0.70113
-0.619211
-0.530202
-0.434488
-0.332421
-0.224326
-0.110508
0.00872746
0.133044
0.262007
0.394994
0.531158
0.669276
0.80757
0.943524
1.07374
1.1939
1.29906
1.38426
1.44573
1.48218
1.4954
1.48929
-1.1683
-1.17094
-1.16076
-1.13876
-1.10566
-1.06204
-1.00844
-0.945403
-0.873487
-0.793218
-0.70509
-0.60955
-0.506987
-0.397734
-0.282065
-0.160199
-0.0323202
0.101398
0.240733
0.385325
0.534576
0.687516
0.842528
0.997049
1.14726
1.28788
1.41235
1.51363
1.58604
1.62756
1.6411
1.6327
-1.30533
-1.30823
-1.29679
-1.27231
-1.2357
-1.18771
-1.12902
-1.06034
-0.982333
-0.895615
-0.800756
-0.698244
-0.588485
-0.471794
-0.348393
-0.218414
-0.0819051
0.0611526
0.210797
0.367014
0.529604
0.698034
0.871094
1.04646
1.22011
1.38583
1.53503
1.65763
1.74468
1.79248
1.80544
1.79328
-1.45902
-1.46217
-1.44915
-1.4216
-1.38073
-1.32753
-1.26291
-1.18774
-1.10285
-1.00898
-0.90679
-0.79683
-0.679527
-0.555188
-0.423993
-0.285988
-0.141089
0.0109257
0.170383
0.337676
0.513157
0.696934
0.888543
1.08634
1.28665
1.48268
1.66369
1.8154
1.92338
1.97998
1.99096
1.97222
-1.63178
-1.63518
-1.62007
-1.58862
-1.54247
-1.48294
-1.41125
-1.32851
-1.23576
-1.13389
-1.02367
-0.905724
-0.780509
-0.648339
-0.509365
-0.363568
-0.210749
-0.0505085
0.117759
0.294865
0.481784
0.679481
0.88858
1.10873
1.33748
1.56856
1.78981
1.98211
2.1224
2.19415
2.20193
2.17121
-1.82672
-1.83032
-1.81236
-1.77581
-1.72292
-1.65554
-1.57527
-1.48357
-1.38173
-1.27081
-1.15173
-1.02516
-0.89162
-0.751433
-0.604741
-0.451493
-0.291424
-0.124017
0.0515369
0.23639
0.432068
0.640438
0.86345
1.1026
1.35787
1.62559
1.89488
2.14331
2.33632
2.43951
2.44665
2.39473
-2.04798
-2.05163
-2.02964
-1.98617
-1.92446
-1.84708
-1.75622
-1.65376
-1.54127
-1.42003
-1.29107
-1.15513
-1.01278
-0.864346
-0.709993
-0.54968
-0.383143
-0.209859
-0.028967
0.160816
0.361309
0.574955
0.804819
1.05437
1.32696
1.62458
1.9435
2.26483
2.54406
2.71647
2.74097
2.65685
-2.30126
-2.30463
-2.27666
-2.22347
-2.14985
-2.05948
-1.95532
-1.83975
-1.71468
-1.58157
-1.44152
-1.29534
-1.14357
-0.986589
-0.824566
-0.657517
-0.48527
-0.307433
-0.123326
0.0681208
0.268501
0.480098
0.706081
0.950785
1.22044
1.52553
1.87895
2.28152
2.69273
3.00958
3.11164
2.99689
-2.59479
-2.59714
-2.55984
-2.49247
-2.40232
-2.29471
-2.1736
-2.04194
-1.90192
-1.7551
-1.60258
-1.44512
-1.28324
-1.11728
-0.947442
-0.77382
-0.596409
-0.4151
-0.22965
-0.0396459
0.155551
0.356885
0.565813
0.785057
1.02083
1.28963
1.63274
2.0977
2.68492
3.26959
3.59639
3.50498
-2.9412
-2.94073
-2.88805
-2.79911
-2.68538
-2.55451
-2.41164
-2.26018
-2.10241
-1.93978
-1.77324
-1.60339
-1.43059
-1.25511
-1.07714
-0.896843
-0.714424
-0.530158
-0.344453
-0.157952
0.02829
0.212548
0.392267
0.564901
0.732008
0.909627
1.16233
1.62199
2.39398
3.40362
4.23734
4.35424
-3.36132
-3.35331
-3.27356
-3.15043
-3.0023
-2.83979
-2.66898
-2.4933
-2.31463
-2.13397
-1.95183
-1.76844
-1.58389
-1.39826
-1.21166
-1.02429
-0.83653
-0.64905
-0.462969
-0.280151
-0.103726
0.0611082
0.206139
0.320314
0.394749
0.439194
0.51535
0.852265
1.74094
3.3077
5.08009
5.84531
-3.8929
-3.86382
-3.73273
-3.55329
-3.35426
-3.14881
-2.9426
-2.73782
-2.53506
-2.33426
-2.13509
-1.93716
-1.74013
-1.54376
-1.34799
-1.15296
-0.959179
-0.767593
-0.579916
-0.399058
-0.229953
-0.0808807
0.0347949
0.0976268
0.086017
-0.00570843
-0.122235
-0.0199459
0.842163
2.99096
6.22284
8.49122
-4.61316
-4.51902
-4.28278
-4.00796
-3.73402
-3.47176
-3.22231
-2.98399
-2.75464
-2.53227
-2.31525
-2.1023
-1.89249
-1.68516
-1.47997
-1.27697
-1.07666
-0.880181
-0.689656
-0.508666
-0.343232
-0.203237
-0.104204
-0.0685521
-0.123098
-0.284404
-0.514871
-0.606663
0.149937
2.81257
7.99328
13.1868
-5.70207
-5.38111
-4.91648
-4.48173
-4.10401
-3.77316
-3.4762
-3.20336
-2.94782
-2.70488
-2.47122
-2.24449
-2.02305
-1.80582
-1.59219
-1.38205
-1.17589
-0.97504
-0.781891
-0.600444
-0.437223
-0.302509
-0.211639
-0.185299
-0.245676
-0.401638
-0.611323
-0.665142
0.265847
3.70026
11.3516
21.4427
-7.60504
-6.41353
-5.47381
-4.81396
-4.32557
-3.93598
-3.60522
-3.31118
-3.04121
-2.78776
-2.54602
-2.31285
-2.08615
-1.86456
-1.64735
-1.43437
-1.2262
-1.02439
-0.831597
-0.652162
-0.492951
-0.364225
-0.280095
-0.257042
-0.306926
-0.417323
-0.50739
-0.259382
1.38403
6.45801
18.2969
37.4188
-12.2349
-6.73903
-5.02515
-4.34706
-3.95535
-3.65387
-3.38822
-3.14093
-2.90503
-2.67701
-2.45477
-2.23691
-2.0225
-1.81101
-1.60229
-1.3967
-1.19527
-0.999912
-0.813657
-0.641233
-0.489764
-0.369262
-0.292131
-0.269632
-0.300627
-0.342206
-0.238327
0.505691
3.15879
10.4152
28.7426
75.1659
VECTORS velocity double
-2.67434e-05 2.67435e-05 0
-0.000192696 0.000139209 0
-0.000535791 0.000203886 0
-0.000966585 0.000226908 0
-0.00142305 0.000229552 0
-0.00187703 0.00022443 0
-0.00231775 0.000216298 0
-0.0027404 0.000206352 0
-0.00314144 0.000194682 0
-0.00351728 0.000181156 0
-0.00386407 0.000165635 0
-0.00417771 0.000148007 0
-0.00445391 0.00012819 0
-0.00468822 0.000106129 0
-0.00487617 8.18184e-05 0
-0.00501332 5.53292e-05 0
-0.00509549 2.6844e-05 0
-0.00511898 -3.35481e-06 0
-0.00508037 -3.52554e-05 0
-0.00497675 -6.83712e-05 0
-0.00480623 -0.000102147 0
-0.0045681 -0.000135976 0
-0.00426295 -0.000169178 0
-0.00389276 -0.000201008 0
-0.00346109 -0.000230665 0
-0.00297318 -0.000257241 0
-0.00243656 -0.000279382 0
-0.00186298 -0.000294194 0
-0.00127418 -0.000294608 0
-0.000714236 -0.000265339 0
-0.000265912 -0.000182986 0
-4.14632e-05 -4.14634e-05 0
-0.000143784 0.000197271 0
-0.000634609 0.00062546 0
-0.00143982 0.000865944 0
-0.0023992 0.000955019 0
-0.00340767 0.000966377 0
-0.00441115 0.000945065 0
-0.0053842 0.00090944 0
-0.00631328 0.000864942 0
-0.00718873 0.000812568 0
-0.00800181 0.000752191 0
-0.00874394 0.000683521 0
-0.00940649 0.000606308 0
-0.00998078 0.000520385 0
-0.0104582 0.000425696 0
-0.0108304 0.000322345 0
-0.0110891 0.000210682 0
-0.0112269 9.14089e-05 0
-0.0112369 -3.4403e-05 0
-0.0111139 -0.000165828 0
-0.0108543 -0.000301039 0
-0.0104562 -0.00043801 0
-0.00992005 -0.000574437 0
-0.00924821 -0.000707709 0
-0.00844592 -0.000834951 0
-0.00752129 -0.000953027 0
-0.00648584 -0.00105824 0
-0.0053559 -0.00114496 0
-0.0041565 -0.0012016 0
-0.00293088 -0.00120163 0
-0.00175827 -0.00109088 0
-0.000775165 -0.000788872 0
-0.000176133 -0.000259059 0
-0.000218751 0.000559806 0
-0.000912894 0.00144789 0
-0.0019913 0.00192713 0
-0.00324442 0.00210633 0
-0.00454943 0.00212855 0
-0.00584364 0.00208057 0
-0.00709594 0.00199929 0
-0.00828855 0.00189678 0
-0.00940839 0.00177602 0
-0.0104439 0.00163738 0
-0.0113842 0.00148071 0
-0.0122183 0.00130582 0
-0.0129358 0.00111268 0
-0.0135264 0.000901422 0
-0.0139801 0.000672496 0
-0.0142877 0.000426768 0
-0.0144403 0.000165706 0
-0.0144305 -0.000108455 0
-0.0142527 -0.000392619 0
-0.0139033 -0.000683203 0
-0.013381 -0.000976181 0
-0.0126866 -0.00126685 0
-0.0118239 -0.00154985 0
-0.0107998 -0.00181924 0
-0.00962469 -0.00206845 0
-0.00831335 -0.00228959 0
-0.00688631 -0.00247059 0
-0.00537427 -0.0025874 0
-0.00382826 -0.00258745 0
-0.00233904 -0.0023669 0
-0.0010646 -0.0017704 0
-0.00025299 -0.000688182 0
-0.000254583 0.00103314 0
-0.00105267 0.00246678 0
-0.00227587 0.00320985 0
-0.00368237 0.00348324 0
-0.00513841 0.00351269 0
-0.00657803 0.00343025 0
-0.00796857 0.00329246 0
-0.00929088 0.00311852 0
-0.0105306 0.0029138 0
-0.0116749 0.00267948 0
-0.0127118 0.00241577 0
-0.0136297 0.00212277 0
-0.0144172 0.00180073 0
-0.0150634 0.00145016 0
-0.0155579 0.00107199 0
-0.0158909 0.000667762 0
-0.0160534 0.000239863 0
-0.0160376 -0.000208123 0
-0.0158376 -0.00067083 0
-0.0154491 -0.00114282 0
-0.0148702 -0.00161776 0
-0.0141017 -0.00208821 0
-0.0131473 -0.00254563 0
-0.0120143 -0.00298053 0
-0.0107143 -0.00338232 0
-0.00926315 -0.00373817 0
-0.00768351 -0.00402869 0
-0.00600866 -0.00421619 0
-0.00429319 -0.00422014 0
-0.00263417 -0.00388245 0
-0.00120449 -0.00295896 0
-0.000287278 -0.00122845 0
-0.000271322 0.00155905 0
-0.0011231 0.00359074 0
-0.00242698 0.00461298 0
-0.00392131 0.00498094 0
-0.00546394 0.00501366 0
-0.00698657 0.00489154 0
-0.00845602 0.00469117 0
-0.00985284 0.00443892 0
-0.0111623 0.00414253 0
-0.0123713 0.00380406 0
-0.0134673 0.00342419 0
-0.0144385 0.00300339 0
-0.0152732 0.00254224 0
-0.01596 0.00204168 0
-0.0164882 0.00150316 0
-0.0168475 0.000928906 0
-0.0170285 0.000322256 0
-0.0170228 -0.000311907 0
-0.0168234 -0.000966539 0
-0.0164247 -0.00163426 0
-0.0158237 -0.00230626 0
-0.0150198 -0.0029721 0
-0.0140163 -0.00361974 0
-0.0128199 -0.00423573 0
-0.0114421 -0.00480493 0
-0.00989984 -0.00530898 0
-0.00821689 -0.00572047 0
-0.00642893 -0.00598723 0
-0.00459439 -0.00599911 0
-0.00281753 -0.00553936 0
-0.00128533 -0.00426392 0
-0.000305155 -0.00182088 0
-0.000282277 0.00211264 0
-0.00117127 0.00477792 0
-0.00253416 0.00609257 0
-0.00409531 0.00655682 0
-0.00570549 0.0065906 0
-0.00729392 0.00642566 0
-0.00882684 0.00615941 0
-0.0102847 0.00582538 0
-0.0116528 0.00543362 0
-0.012918 0.00498709 0
-0.0140676 0.0044869 0
-0.0150896 0.00393384 0
-0.015972 0.00332883 0
-0.0167033 0.00267311 0
-0.0172719 0.00196857 0
-0.0176671 0.00121797 0
-0.0178783 0.000425445 0
-0.017896 -0.000403071 0
-0.0177115 -0.00125934 0
-0.0173175 -0.00213409 0
-0.016709 -0.00301596 0
-0.0158839 -0.00389133 0
-0.0148437 -0.00474435 0
-0.0135941 -0.00555705 0
-0.0121464 -0.00630911 0
-0.0105177 -0.0069758 0
-0.00873357 -0.00752068 0
-0.00683291 -0.00787565 0
-0.00487965 -0.00789849 0
-0.00298738 -0.00730912 0
-0.00135831 -0.00565543 0
-0.000320914 -0.00244695 0
-0.00029335 0.00268827 0
-0.00121924 0.00601718 0
-0.0026406 0.00763755 0
-0.00426903 0.00820143 0
-0.00594845 0.00823559 0
-0.00760538 0.00802602 0
-0.00920527 0.00769186 0
-0.0107285 0.00727403 0
-0.0121603 0.0067849 0
-0.0134876 0.00622826 0
-0.0146978 0.00560561 0
-0.0157787 0.004918 0
-0.0167181 0.00416649 0
-0.0175039 0.00335251 0
-0.0181242 0.00247809 0
-0.0185669 0.00154629 0
-0.0188202 0.000561689 0
-0.0188728 -0.000469049 0
-0.0187139 -0.00153681 0
-0.0183338 -0.00263062 0
-0.0177251 -0.00373664 0
-0.0168829 -0.00483793 0
-0.0158065 -0.00591443 0
-0.0145 -0.00694303 0
-0.0129736 -0.00789728 0
-0.011245 -0.00874486 0
-0.00934206 -0.00943869 0
-0.00730787 -0.0098925 0
-0.00521403 -0.00992873 0
-0.00318619 -0.00919898 0
-0.00144434 -0.00713648 0
-0.000339884 -0.00310775 0
-0.000306578 0.0032882 0
-0.0012753 0.00731186 0
-0.00276335 0.00925226 0
-0.00446838 0.00992018 0
-0.00622696 0.00995484 0
-0.00796261 0.00969935 0
-0.00963986 0.00929567 0
-0.0112389 0.00879243 0
-0.012745 0.00820442 0
-0.0141452 0.00753623 0
-0.015427 0.00678968 0
-0.0165781 0.00596594 0
-0.0175863 0.00506608 0
-0.0184389 0.00409139 0
-0.0191232 0.00304376 0
-0.019626 0.00192612 0
-0.0199339 0.00074305 0
-0.0200332 -0.000498509 0
-0.0199106 -0.00178889 0
-0.0195534 -0.0031158 0
-0.0189505 -0.0044631 0
-0.0180936 -0.00581046 0
-0.0169788 -0.00713318 0
-0.0156074 -0.00840221 0
-0.0139882 -0.00958368 0
-0.0121393 -0.0106359 0
-0.010091 -0.0114989 0
-0.00789257 -0.012065 0
-0.00562559 -0.0121171 0
-0.00343113 -0.0112329 0
-0.00155086 -0.00872464 0
-0.000363638 -0.00381127 0
-0.000322559 0.00391734 0
-0.00134217 0.00867106 0
-0.00290847 0.0109474 0
-0.0047028 0.0117244 0
-0.00655346 0.0117599 0
-0.00838066 0.0114572 0
-0.0101478 0.0109823 0
-0.0118349 0.0103919 0
-0.0134274 0.00970352 0
-0.0149125 0.00892241 0
-0.0162779 0.00805072 0
-0.0175115 0.00708963 0
-0.0186009 0.00603994 0
-0.0195333 0.00490254 0
-0.0202951 0.00367871 0
-0.0208719 0.00237076 0
-0.0212483 0.000982671 0
-0.0214081 -0.000478947 0
-0.0213348 -0.0020044 0
-0.0210117 -0.00358064 0
-0.0204232 -0.00518963 0
-0.0195563 -0.00680769 0
-0.018402 -0.00840509 0
-0.0169579 -0.00994583 0
-0.0152302 -0.0113869 0
-0.0132369 -0.0126749 0
-0.0110117 -0.0137334 0
-0.00861144 -0.0144292 0
-0.00613106 -0.0145002 0
-0.00373142 -0.0134439 0
-0.00168126 -0.0104441 0
-0.000392687 -0.0045676 0
-0.0003415 0.0045814 0
-0.00142089 0.010106 0
-0.00307835 0.0127362 0
-0.0049761 0.0136277 0
-0.00693295 0.0136641 0
-0.00886537 0.0133125 0
-0.0107356 0.0127643 0
-0.0125235 0.0120849 0
-0.0142147 0.0112943 0
-0.0157968 0.0103988 0
-0.0172579 0.00940086 0
-0.0185863 0.00830148 0
-0.0197698 0.00710101 0
-0.0207955 0.00579953 0
-0.0216492 0.00439725 0
-0.0223154 0.00289515 0
-0.0227766 0.0012959 0
-0.0230138 -0.000395101 0
-0.0230065 -0.0021689 0
-0.0227331 -0.00401263 0
-0.0221722 -0.00590705 0
-0.021304 -0.00782544 0
-0.0201129 -0.00973272 0
-0.0185904 -0.0115848 0
-0.0167387 -0.0133274 0
-0.0145747 -0.0148918 0
-0.0121359 -0.0161806 0
-0.009489 -0.0170291 0
-0.00674664 -0.0171231 0
-0.00409548 -0.0158718 0
-0.00183827 -0.0123235 0
-0.000427369 -0.00538765 0
-0.00036357 0.00528647 0
-0.00151222 0.011629 0
-0.00327463 0.0146331 0
-0.00529075 0.0156446 0
-0.00736852 0.0156818 0
-0.0094202 0.015279 0
-0.0114068 0.0146548 0
-0.013308 0.0138836 0
-0.0151099 0.0129886 0
-0.0168006 0.0119772 0
-0.0183691 0.0108521 0
-0.0198045 0.00961398 0
-0.021095 0.00826258 0
-0.0222281 0.00679676 0
-0.0231894 0.00521505 0
-0.0239623 0.00351639 0
-0.0245275 0.00170107 0
-0.0248627 -0.000227831 0
-0.024943 -0.00226325 0
-0.0247407 -0.00439391 0
-0.0242269 -0.00660054 0
-0.0233729 -0.00885417 0
-0.0221536 -0.0111144 0
-0.0205515 -0.0133277 0
-0.0185617 -0.0154259 0
-0.0161986 -0.0173204 0
-0.0135034 -0.018886 0
-0.010556 -0.0199179 0
-0.0074923 -0.0200403 0
-0.00453329 -0.0185648 0
-0.00202501 -0.0143961 0
-0.000468011 -0.00628303 0
-0.000389009 0.00603905 0
-0.0016171 0.0132531 0
-0.00349918 0.0166534 0
-0.00564944 0.0177907 0
-0.0078634 0.0178274 0
-0.0100486 0.0173702 0
-0.0121646 0.0166662 0
-0.0141913 0.0158 0
-0.0161152 0.014798 0
-0.0179256 0.013669 0
-0.0196125 0.0124159 0
-0.0211663 0.0110393 0
-0.0225765 0.009538 0
-0.0238313 0.00790924 0
-0.0249166 0.00614924 0
-0.0258155 0.00425393 0
-0.0265068 0.00222007 0
-0.0269653 4.68464e-05 0
-0.0271608 -0.00226217 0
-0.0270587 -0.00469929 0
-0.0266204 -0.00724724 0
-0.0258056 -0.00987633 0
-0.0245757 -0.0125414 0
-0.0228997 -0.0151788 0
-0.0207614 -0.0177028 0
-0.0181693 -0.0199988 0
-0.0151679 -0.0219041 0
-0.0118537 -0.0231614 0
-0.00839453 -0.0233197 0
-0.00505762 -0.0215814 0
-0.00224505 -0.0167004 0
-0.000514857 -0.0072659 0
-0.000418177 0.00684623 0
-0.00173688 0.0149927 0
-0.00375456 0.0188136 0
-0.00605573 0.020082 0
-0.00842175 0.0201161 0
-0.0107548 0.0195998 0
-0.0130132 0.0188111 0
-0.0151768 0.0178453 0
-0.0172331 0.0167329 0
-0.0191729 0.0154842 0
-0.0209879 0.0141027 0
-0.0226705 0.0125888 0
-0.0242121 0.0109402 0
-0.0256025 0.00915223 0
-0.0268289 0.00721805 0
-0.0278746 0.0051296 0
-0.0287175 0.00287865 0
-0.0293294 0.000458623 0
-0.029675 -0.00213281 0
-0.0297116 -0.00489411 0
-0.0293891 -0.00781325 0
-0.0286516 -0.0108627 0
-0.0274422 -0.0139943 0
-0.0257099 -0.0171342 0
-0.02342 -0.0201755 0
-0.0205693 -0.022969 0
-0.0172035 -0.0253009 0
-0.0134398 -0.0268425 0
-0.00948983 -0.0270477 0
-0.00568526 -0.0249948 0
-0.00250243 -0.0192823 0
-0.000567892 -0.00834865 0
-0.000451593 0.007716 0
-0.00187347 0.0168636 0
-0.00404434 0.0211313 0
-0.00651452 0.0225356 0
-0.00904925 0.0225632 0
-0.0115448 0.0219813 0
-0.0139579 0.0211011 0
-0.0162689 0.0200298 0
-0.0184666 0.0188025 0
-0.0205438 0.0174315 0
-0.0224948 0.0159214 0
-0.0243145 0.0142724 0
-0.0259975 0.0124811 0
-0.0275363 0.0105405 0
-0.0289204 0.00844031 0
-0.0301347 0.00616724 0
-0.0311573 0.00370651 0
-0.0319581 0.0010435 0
-0.032497 -0.00183316 0
-0.0327226 -0.00493153 0
-0.0325713 -0.00824972 0
-0.0319678 -0.0117671 0
-0.0308302 -0.0154369 0
-0.0290781 -0.0191761 0
-0.0266477 -0.0228539 0
-0.0235133 -0.0262758 0
-0.0197164 -0.0291568 0
-0.0153983 -0.0310684 0
-0.0108315 -0.0313386 0
-0.00643977 -0.0289003 0
-0.00280183 -0.0221976 0
-0.000626595 -0.00954314 0
-0.000490011 0.00865761 0
-0.0020296 0.0188834 0
-0.00437356 0.0236263 0
-0.00703264 0.0251699 0
-0.00975372 0.0251847 0
-0.0124265 0.0245281 0
-0.0150061 0.023547 0
-0.0174735 0.0223622 0
-0.0198196 0.0210139 0
-0.0220398 0.0195174 0
-0.0241317 0.0178785 0
-0.0260942 0.0160976 0
-0.0279258 0.0141704 0
-0.0296233 0.0120875 0
-0.0311802 0.0098344 0
-0.0325846 0.00739186 0
-0.033817 0.00473682 0
-0.034847 0.00184402 0
-0.035631 -0.00131071 0
-0.0361097 -0.00474971 0
-0.0362045 -0.00848803 0
-0.035817 -0.0125198 0
-0.034832 -0.0168069 0
-0.0331274 -0.0212627 0
-0.0305936 -0.0257315 0
-0.0271648 -0.0299614 0
-0.0228648 -0.0335683 0
-0.0178598 -0.03598 0
-0.012505 -0.0363485 0
-0.00735915 -0.0334279 0
-0.0031502 -0.0255169 0
-0.000689772 -0.0108595 0
-0.000534512 0.00968213 0
-0.00220912 0.0210731 0
-0.00474924 0.0263207 0
-0.00761953 0.0280049 0
-0.0105459 0.0279973 0
-0.0134107 0.0272531 0
-0.0161677 0.0261586 0
-0.0187988 0.0248492 0
-0.0212975 0.0233718 0
-0.0236629 0.0217451 0
-0.025897 0.0199769 0
-0.0280037 0.0180684 0
-0.0299869 0.0160145 0
-0.0318495 0.0138035 0
-0.0335908 0.0114167 0
-0.035205 0.00882814 0
-0.0366771 0.00600502 0
-0.0379801 0.00290885 0
-0.0390698 -0.000501848 0
-0.0398805 -0.00426917 0
-0.04032 -0.00843422 0
-0.0402636 -0.0130176 0
-0.0395546 -0.018003 0
-0.0380138 -0.023312 0
-0.0354616 -0.0287682 0
-0.0317631 -0.0340519 0
-0.026897 -0.0386438 0
-0.0210437 -0.0417627 0
-0.0146644 -0.0423001 0
-0.00851801 -0.0387685 0
-0.00356405 -0.0293392 0
-0.000756214 -0.0123055 0
-0.000586659 0.0108033 0
-0.00241756 0.0234574 0
-0.00518132 0.0292402 0
-0.0082884 0.0310627 0
-0.0114407 0.0310182 0
-0.0145126 0.0301688 0
-0.0174563 0.0289436 0
-0.0202558 0.0274948 0
-0.022908 0.0258771 0
-0.0254165 0.0241136 0
-0.027789 0.022215 0
-0.0300357 0.0201837 0
-0.0321678 0.0180145 0
-0.0341957 0.015694 0
-0.0361274 0.0131993 0
-0.0379657 0.0104979 0
-0.0397046 0.00754635 0
-0.0413247 0.00429071 0
-0.0427867 0.000667809 0
-0.0440237 -0.00339109 0
-0.0449332 -0.00796329 0
-0.0453653 -0.0131128 0
-0.045116 -0.018866 0
-0.0439314 -0.0251745 0
-0.0415315 -0.0318578 0
-0.0376669 -0.0385254 0
-0.0322197 -0.0444837 0
-0.0253452 -0.0486505 0
-0.0176188 -0.0495181 0
-0.0100881 -0.0452275 0
-0.00409441 -0.0338278 0
-0.000828703 -0.0138904 0
-0.000648724 0.0120387 0
-0.00266283 0.0260671 0
-0.0056838 0.0324153 0
-0.00905759 0.0343685 0
-0.0124586 0.0342658 0
-0.0157524 0.0332868 0
-0.0188905 0.0319075 0
-0.0218597 0.0302994 0
-0.0246614 0.0285263 0
-0.0273053 0.0266168 0
-0.0298062 0.0245851 0
-0.0321819 0.0224359 0
-0.0344522 0.0201647 0
-0.0366375 0.0177569 0
-0.0387565 0.0151871 0
-0.0408245 0.0124164 0
-0.0428493 0.00939158 0
-0.0448259 0.00604218 0
-0.0467279 0.00228024 0
-0.0484966 -0.00199777 0
-0.0500288 -0.00691494 0
-0.0511573 -0.0126005 0
-0.0516316 -0.0191534 0
-0.0511109 -0.0265925 0
-0.0491805 -0.0347701 0
-0.0454137 -0.0432444 0
-0.0395048 -0.0511208 0
-0.0314869 -0.0569056 0
-0.0220021 -0.0584743 0
-0.0124764 -0.0533277 0
-0.00489386 -0.0393038 0
-0.000927432 -0.0156465 0
-0.000724038 0.0134114 0
-0.00295633 0.0289407 0
-0.00627655 0.0358829 0
-0.00995274 0.0379509 0
-0.0136277 0.0377593 0
-0.0171578 0.0366171 0
-0.0204952 0.0350527 0
-0.0236307 0.0332589 0
-0.0265723 0.0313102 0
-0.0293372 0.0292418 0
-0.0319485 0.0270723 0
-0.0344335 0.0248093 0
-0.0368218 0.02245 0
-0.0391453 0.0199803 0
-0.0414363 0.0173736 0
-0.043726 0.0145876 0
-0.0460416 0.0115609 0
-0.0484007 0.00820855 0
-0.0508021 0.00441723 0
-0.0532104 4.23432e-05 0
-0.0555393 -0.00509401 0
-0.0576242 -0.011208 0
-0.0591851 -0.0185107 0
-0.0597967 -0.0271442 0
-0.0588823 -0.0370632 0
-0.0557597 -0.0478406 0
-0.0497922 -0.058401 0
-0.0406961 -0.0667394 0
-0.0290108 -0.0698107 0
-0.0165595 -0.0639684 0
-0.00635436 -0.0464507 0
-0.0011232 -0.0176972 0
-0.000817567 0.014953 0
-0.00331479 0.0321286 0
-0.00698807 0.0396885 0
-0.0110098 0.0418432 0
-0.0149865 0.0415187 0
-0.0187663 0.0401677 0
-0.0223035 0.0383767 0
-0.0255958 0.0363626 0
-0.02866 0.0342122 0
-0.031523 0.0319677 0
-0.0342179 0.0296528 0
-0.0367824 0.0272783 0
-0.0392572 0.0248443 0
-0.0416866 0.022339 0
-0.0441181 0.0197374 0
-0.0466021 0.0169974 0
-0.0491905 0.0140551 0
-0.0519332 0.0108161 0
-0.0548688 0.00714662 0
-0.0580093 0.00286182 0
-0.0613132 -0.00228062 0
-0.0646543 -0.00859546 0
-0.0677659 -0.0164508 0
-0.0701693 -0.0261891 0
-0.0711177 -0.0379843 0
-0.069589 -0.0515708 0
-0.0644173 -0.0658101 0
-0.0546922 -0.0781515 0
-0.0405056 -0.0842705 0
-0.0239 -0.0785655 0
-0.00930146 -0.0566574 0
-0.00160138 -0.0204218 0
-0.000936857 0.0167075 0
-0.00376303 0.0356976 0
-0.00785953 0.0438893 0
-0.0122793 0.0460839 0
-0.0165881 0.0455636 0
-0.0206276 0.0439422 0
-0.0243586 0.0418704 0
-0.0277896 0.0395922 0
-0.0309497 0.0372069 0
-0.033878 0.0347643 0
-0.0366193 0.0322925 0
-0.0392225 0.0298061 0
-0.0417397 0.0273085 0
-0.0442277 0.0247922 0
-0.0467493 0.0222373 0
-0.0493755 0.0196077 0
-0.0521869 0.0168447 0
-0.055274 0.0138561 0
-0.058732 0.0105002 0
-0.0626479 0.00656468 0
-0.0670713 0.00174383 0
-0.0719676 -0.00438251 0
-0.077149 -0.0123708 0
-0.082151 -0.0228637 0
-0.0860777 -0.0364345 0
-0.0874874 -0.0532395 0
-0.0844626 -0.0723378 0
-0.0750947 -0.0907168 0
-0.0585418 -0.102445 0
-0.0365895 -0.0989492 0
-0.0151115 -0.0723503 0
-0.00275867 -0.0247818 0
-0.00109368 0.018738 0
-0.00433873 0.0397383 0
-0.00895133 0.0485577 0
-0.0138328 0.0507167 0
-0.0185045 0.0499113 0
-0.0228075 0.0479369 0
-0.026716 0.0455151 0
-0.0302556 0.0429181 0
-0.0334726 0.040258 0
-0.0364216 0.0375905 0
-0.0391608 0.0349469 0
-0.0417505 0.0323445 0
-0.0442534 0.0297902 0
-0.0467373 0.0272823 0
-0.0492782 0.0248097 0
-0.0519659 0.0223491 0
-0.0549097 0.0198586 0
-0.0582449 0.0172646 0
-0.0621365 0.0144414 0
-0.0667747 0.0111778 0
-0.0723522 0.00713154 0
-0.079002 0.00177593 0
-0.0866899 -0.00566005 0
-0.0950412 -0.0162212 0
-0.103062 -0.03113 0
-0.108852 -0.051344 0
-0.10959 -0.07652 0
-0.102085 -0.103408 0
-0.0840845 -0.124307 0
-0.0563621 -0.126762 0
-0.0255143 -0.0968636 0
-0.00529757 -0.0328381 0
-0.00130701 0.0211387 0
-0.00510044 0.0443761 0
-0.0103532 0.0537853 0
-0.0157717 0.055789 0
-0.0208335 0.0545726 0
-0.0253908 0.0521359 0
-0.0294434 0.0492772 0
-0.0330442 0.0462965 0
-0.0362633 0.0433157 0
-0.0391746 0.0403931 0
-0.0418511 0.0375601 0
-0.0443641 0.034834 0
-0.0467848 0.0322243 0
-0.0491879 0.0297353 0
-0.051658 0.0273677 0
-0.0542972 0.025118 0
-0.057237 0.0229733 0
-0.0606521 0.0209003 0
-0.0647777 0.0188227 0
-0.069921 0.0165779 0
-0.0764539 0.0138418 0
-0.0847512 0.0100128 0
-0.0950229 0.00406259 0
-0.107017 -0.00559828 0
-0.11969 -0.0210594 0
-0.130794 -0.0445203 0
-0.136687 -0.0767125 0
-0.132892 -0.114516 0
-0.115448 -0.148643 0
-0.0832081 -0.162388 0
-0.0419023 -0.133391 0
-0.0101469 -0.0482825 0
-0.0016086 0.0240543 0
-0.00614166 0.0497869 0
-0.0122 0.0596856 0
-0.0182389 0.0613461 0
-0.0237032 0.0595416 0
-0.0284801 0.0565011 0
-0.032616 0.0531005 0
-0.0362049 0.0496629 0
-0.0393496 0.046313 0
-0.0421474 0.043105 0
-0.0446871 0.0400645 0
-0.0470492 0.0372048 0
-0.0493096 0.0345345 0
-0.0515445 0.032063 0
-0.0538381 0.0298037 0
-0.0562936 0.0277768 0
-0.0590481 0.0260088 0
-0.0622958 0.0245275 0
-0.0663168 0.0233421 0
-0.0715107 0.0223956 0
-0.0784113 0.0214577 0
-0.0876391 0.0199221 0
-0.0997106 0.0164964 0
-0.114639 0.0088902 0
-0.131365 -0.00614795 0
-0.147528 -0.0321653 0
-0.159212 -0.0714899 0
-0.161057 -0.12169 0
-0.147379 -0.172592 0
-0.114208 -0.203849 0
-0.0641527 -0.183291 0
-0.0179309 -0.0763603 0
-0.00205357 0.0277165 0
-0.00761478 0.056219 0
-0.0146937 0.0663908 0
-0.0214285 0.0674145 0
-0.0272678 0.0647768 0
-0.0321794 0.0609544 0
-0.0362888 0.0568924 0
-0.0397511 0.0529223 0
-0.0427112 0.0491584 0
-0.0452936 0.0456398 0
-0.0476019 0.0423778 0
-0.0497232 0.0393748 0
-0.0517324 0.0366341 0
-0.0536998 0.0341658 0
-0.0556985 0.0319933 0
-0.0578154 0.0301596 0
-0.0601683 0.0287335 0
-0.0629308 0.0278129 0
-0.0663687 0.0275157 0
-0.070887 0.0279341 0
-0.0770684 0.0290013 0
-0.0856615 0.0301994 0
-0.0974371 0.0300661 0
-0.112829 0.0256404 0
-0.13134 0.0123398 0
-0.150863 -0.0149682 0
-0.167798 -0.0600665 0
-0.176884 -0.122183 0
-0.171087 -0.191573 0
-0.14298 -0.246145 0
-0.0894551 -0.244575 0
-0.0282309 -0.122522 0
-0.00274067 0.0325107 0
-0.00976993 0.0640153 0
-0.0181242 0.0740278 0
-0.0255718 0.0739599 0
-0.0316588 0.0701577 0
-0.0365153 0.0653416 0
-0.0403943 0.0604936 0
-0.0435355 0.0559244 0
-0.0461346 0.0517155 0
-0.0483438 0.0478743 0
-0.0502788 0.0443866 0
-0.0520278 0.0412361 0
-0.0536592 0.0384135 0
-0.055229 0.0359236 0
-0.0567875 0.0337925 0
-0.0583877 0.0320775 0
-0.0600978 0.0308786 0
-0.0620196 0.030352 0
-0.0643189 0.0307138 0
-0.0672684 0.0322038 0
-0.0712998 0.0349445 0
-0.0770463 0.0385957 0
-0.0853355 0.0417346 0
-0.0970578 0.0410862 0
-0.112779 0.0311265 0
-0.131975 0.00496336 0
-0.152245 -0.042792 0
-0.169084 -0.113533 0
-0.175234 -0.199871 0
-0.159907 -0.281281 0
-0.111971 -0.310901 0
-0.039319 -0.190072 0
-0.00384927 0.0391007 0
-0.0130061 0.0736115 0
-0.0228503 0.0826301 0
-0.0308241 0.0807789 0
-0.0367849 0.0753863 0
-0.0411625 0.0693471 0
-0.044401 0.0636055 0
-0.0468458 0.0583985 0
-0.0487462 0.0537409 0
-0.0502769 0.0495887 0
-0.0515592 0.0458895 0
-0.0526761 0.0425992 0
-0.0536835 0.0396893 0
-0.0546172 0.0371513 0