# vtk DataFile Version 2.0
Lid-driven cavity
ASCII
DATASET STRUCTURED_POINTS
DIMENSIONS 32 32 1
ORIGIN 0.015625 0.015625 0
SPACING 0.03125 0.03125 1
POINT_DATA 1024
SCALARS pressure double 1
LOOKUP_TABLE default
11.8261
11.7965
11.7596
11.7308
11.7165
11.7188
11.7381
11.7753
11.8316
11.9091
12.0097
12.1349
12.2848
12.4582
12.6512
12.8576
13.0685
13.2727
13.4573
13.6091
13.7167
13.7728
13.7755
13.7292
13.6442
13.5348
13.4167
13.3044
13.2099
13.1432
13.1106
13.1114
11.8557
11.8248
11.7956
11.7753
11.7674
11.7735
11.7944
11.8312
11.8855
11.9591
12.0539
12.1713
12.3115
12.4732
12.6532
12.8458
13.0427
13.2333
13.4056
13.5471
13.6472
13.6989
13.701
13.6585
13.5814
13.4832
13.3787
13.2806
13.1985
13.14
13.1103
13.1121
11.8933
11.8504
11.8203
11.8032
11.7988
11.8068
11.8275
11.8618
11.9116
11.979
12.066
12.1743
12.3049
12.4572
12.6285
12.8139
13.0051
13.1917
13.3614
13.5015
13.6005
13.6511
13.6516
13.6073
13.5295
13.4322
13.3302
13.2365
13.1592
13.1042
13.0759
13.0787
11.9181
11.86
11.825
11.8075
11.8036
11.8108
11.8285
11.8576
11.8999
11.9578
12.0342
12.1315
12.2514
12.3946
12.5596
12.7423
12.9341
13.1242
13.2999
13.4471
13.5531
13.6086
13.6108
13.5644
13.4814
13.378
13.2708
13.173
13.0933
13.0366
13.0062
13.0065
11.9126
11.8391
11.7975
11.7774
11.7711
11.7745
11.7859
11.8061
11.8369
11.8814
11.9431
12.0255
12.1317
12.2637
12.4218
12.6035
12.7996
12.9992
13.1889
13.3535
13.4774
13.5489
13.5621
13.5198
13.4335
13.321
13.202
13.0932
13.0035
12.9386
12.9014
12.8956
11.8605
11.7723
11.7239
11.6994
11.6882
11.6844
11.6856
11.6922
11.7064
11.7316
11.7723
11.8332
11.9192
12.0339
12.18
12.3572
12.5578
12.7704
12.982
13.1759
13.3337
13.4391
13.4812
13.4581
13.3787
13.261
13.1279
13.0005
12.8929
12.812
12.7618
12.746
11.7457
11.6438
11.5884
11.5582
11.5394
11.5245
11.5107
11.4977
11.488
11.4854
11.4952
11.5237
11.5774
11.6627
11.7849
11.9474
12.146
12.3706
12.6099
12.8466
13.0591
13.2249
13.3252
13.3496
13.3
13.1914
13.0484
12.8985
12.7638
12.6574
12.5858
12.5551
11.5516
11.4371
11.3745
11.3369
11.3073
11.2768
11.2414
11.2008
11.1568
11.1138
11.0776
11.056
11.058
11.0932
11.1708
11.2986
11.4792
11.7068
11.9746
12.2665
12.5582
12.8198
13.0213
13.1387
13.1602
13.0915
12.9551
12.7849
12.6151
12.471
12.3688
12.3165
11.2616
11.1356
11.0653
11.0178
10.9733
10.9209
10.8555
10.7759
10.6832
10.5816
10.4776
10.3803
10.3017
10.2554
10.2561
10.3179
10.4517
10.6607
10.9484
11.3027
11.6981
12.0976
12.4569
12.7324
12.8904
12.9172
12.8248
12.6497
12.4419
12.2484
12.1011
12.0182
10.8596
10.7232
10.6441
10.5835
10.5183
10.4357
10.3291
10.1954
10.0348
9.85033
9.64878
9.44096
9.24199
9.07089
8.94958
8.90075
8.94495
9.09784
9.38209
9.79468
10.3125
10.8926
11.4755
11.9928
12.3795
12.5891
12.609
12.4681
12.2312
11.9767
11.7678
11.6424
10.3313
10.1857
10.096
10.0176
9.92445
9.8013
9.63917
9.43271
9.17979
8.88205
8.54592
8.18373
7.81442
7.46356
7.16219
6.94435
6.84322
6.88569
7.1237
7.57287
8.21749
9.01263
9.88506
10.7393
11.4705
11.9847
12.2247
12.1928
11.9589
11.6398
11.3515
11.1657
9.66556
9.51203
9.40922
9.30756
9.17758
9.00143
8.76708
8.46593
8.0927
7.64665
7.13329
6.56626
5.96877
5.37397
4.82397
4.36676
4.05122
3.92008
4.04695
4.48851
5.24192
6.26652
7.48071
8.76406
9.96784
10.9375
11.5479
11.7459
11.5835
11.2132
10.8259
10.5576
8.85616
8.69611
8.57739
8.44604
8.26957
8.02702
7.70264
7.28365
6.76069
6.12971
5.39461
4.57002
3.68355
2.77682
1.90459
1.13131
0.524938
0.147925
0.0842717
0.451623
1.26795
2.50541
4.08341
5.86491
7.66079
9.24895
10.4148
11.0138
11.0404
10.6617
10.1608
9.78218
7.90317
7.73823
7.60078
7.4335
7.20112
6.87934
6.4481
5.88967
5.18971
4.34001
3.34212
2.21118
0.979084
-0.303687
-1.5687
-2.73318
-3.70715
-4.40373
-4.73718
-4.53013
-3.72559
-2.33022
-0.411447
1.89174
4.36298
6.71712
8.63692
9.84973
10.2382
9.93761
9.32252
8.8
6.81396
6.64608
6.48773
6.27944
5.98357
5.5724
5.02119
4.30668
3.40889
2.31472
1.02268
-0.452205
-2.07413
-3.78395
-5.4993
-7.11836
-8.52775
-9.61424
-10.2793
-10.3256
-9.62965
-8.16934
-5.98615
-3.2018
-0.0368738
3.17979
6.03124
8.08914
9.06214
8.97949
8.27428
7.56812
5.60331
5.43481
5.25478
5.00284
4.63951
4.13376
3.45607
2.5774
1.47169
0.120487
-1.48133
-3.31948
-5.35497
-7.52064
-9.72083
-11.8352
-13.7273
-15.2575
-16.3008
-16.6757
-16.1939
-14.7897
-12.4687
-9.31541
-5.52469
-1.43445
2.46348
5.57828
7.38773
7.71701
6.98117
6.04648
4.29252
4.12611
3.92573
3.63124
3.20186
2.60353
1.80213
0.762823
-0.546582
-2.15016
-4.05704
-6.25433
-8.70072
-11.3222
-14.0113
-16.6307
-19.0228
-21.0231
-22.4787
-23.2235
-23.0477
-21.8294
-19.5307
-16.1836
-11.9262
-7.05971
-2.10268
2.21563
5.10714
6.0852
5.4211
4.212
2.90738
2.74615
2.52947
2.19845
1.71138
1.0315
0.120331
-1.06243
-2.55496
-4.38691
-6.57169
-9.09837
-11.9244
-14.9704
-18.1193
-21.2198
-24.096
-26.5621
-28.4408
-29.5694
-29.7521
-28.8347
-26.724
-23.3942
-18.9027
-13.4664
-7.56352
-2.00211
2.16799
4.05186
3.60807
2.08531
1.47543
1.32258
1.09688
0.741266
0.213061
-0.527156
-1.52193
-2.81671
-4.45529
-6.47268
-8.88664
-11.6887
-14.8363
-18.2467
-21.796
-25.3222
-28.6354
-31.5333
-33.8201
-35.3241
-35.8778
-35.3321
-33.5502
-30.4451
-25.9862
-20.2682
-13.6551
-6.94122
-1.3827
1.65794
1.63162
-0.223081
0.0224786
-0.11897
-0.342841
-0.70439
-1.2481
-2.01665
-3.05678
-4.41882
-6.15172
-8.2955
-10.8721
-13.8761
-17.2658
-20.9578
-24.8241
-28.6964
-32.3755
-35.6477
-38.3043
-40.1615
-41.0723
-40.9118
-39.5457
-36.8285
-32.6508
-26.9687
-19.9672
-12.3144
-5.36152
-0.936434
-0.290041
-2.44958
-1.43126
-1.55865
-1.76602
-2.10725
-2.63104
-3.38517
-4.4214
-5.79494
-7.55949
-9.7594
-12.4204
-15.5402
-19.0795
-22.9557
-27.0407
-31.1641
-35.1229
-38.6969
-41.6694
-43.8475
-45.0879
-45.2906
-44.3527
-42.1163
-38.4024
-33.0399
-25.9964
-17.6991
-9.43479
-3.41449
-1.75363
-4.10444
-2.87653
-2.98744
-3.15794
-3.44387
-3.90182
-4.58843
-5.56244
-6.88434
-8.61192
-10.7929
-13.456
-16.6016
-20.1932
-24.1513
-28.3509
-32.6243
-36.7695
-40.5659
-43.7928
-46.2508
-47.789
-48.3195
-47.769
-46.0224
-42.8606
-38.0136
-31.2272
-22.5934
-13.1407
-5.29074
-2.12511
-4.39667
-4.31548
-4.41077
-4.51814
-4.70147
-5.03543
-5.5917
-6.43905
-7.64407
-9.26826
-11.3618
-13.9552
-17.0502
-20.6118
-24.5627
-28.7808
-33.1028
-37.333
-41.2572
-44.6606
-47.3458
-49.1509
-49.9742
-49.7527
-48.4231
-45.8065
-41.5549
-35.2208
-26.499
-15.9496
-5.9358
-0.516314
-2.15963
-5.76596
-5.84698
-5.85826
-5.88006
-6.01915
-6.37346
-7.02707
-8.05375
-9.51764
-11.4692
-13.9382
-16.9253
-20.3951
-24.2707
-28.4327
-32.7222
-36.9504
-40.9121
-44.4021
-47.2324
-49.2438
-50.3227
-50.3866
-49.3734
-47.1858
-43.4947
-37.6747
-28.9983
-17.3423
-4.63519
4.21289
4.23144
-7.27073
-7.33579
-7.20116
-6.98366
-6.84268
-6.9158
-7.3081
-8.10091
-9.3586
-11.1286
-13.4365
-16.2792
-19.6187
-23.3771
-27.4363
-31.6416
-35.8106
-39.7464
-43.2536
-46.1531
-48.2941
-49.5596
-49.8567
-49.0934
-47.159
-43.8146
-38.4255
-29.7802
-16.8602
-0.650337
13.4409
16.9761
-8.91902
-8.95785
-8.59262
-8.02341
-7.49779
-7.20493
-7.2732
-7.78851
-8.81049
-10.3786
-12.5102
-15.1953
-18.3909
-22.0167
-25.9552
-30.0549
-34.139
-38.0177
-41.5028
-44.4218
-46.6287
-48.008
-48.4585
-47.8659
-46.0659
-42.7818
-37.3851
-28.566
-14.042
6.79875
28.8049
39.0514
-10.8832
-10.8571
-10.1133
-9.02466
-7.97917
-7.23286
-6.92583
-7.13819
-7.91597
-9.28392
-11.2465
-13.7838
-16.8457
-20.3485
-24.1742
-28.174
-32.1759
-35.9956
-39.45
-42.3692
-44.6062
-46.0412
-46.5701
-46.0485
-44.2551
-40.7914
-34.8859
-24.9277
-8.15419
18.782
52.3622
74.5831
-13.5182
-13.2897
-11.8781
-10.0144
-8.28193
-6.99566
-6.28159
-6.18976
-6.73876
-7.93054
-9.75213
-12.171
-15.1288
-18.5377
-22.2786
-26.2047
-30.1479
-33.9282
-37.3655
-40.2892
-42.5459
-44.0011
-44.5336
-43.9928
-42.0647
-38.1788
-31.2296
-19.0248
2.27394
37.3543
87.0926
129.448
-17.6427
-16.729
-14.033
-10.9839
-8.36714
-6.47244
-5.35092
-4.98411
-5.34539
-6.4057
-8.13119
-10.4754
-13.3715
-16.7269
-20.4215
-24.3097
-28.2264
-31.9949
-35.4364
-38.3774
-40.6543
-42.1111
-42.5875
-41.8931
-39.6932
-35.1022
-26.4717
-10.6719
17.8623
66.4184
138.073
211.851
-25.3452
-21.9403
-16.5856
-11.7129
-8.0224
-5.51919
-4.04599
-3.47903
-3.72781
-4.72623
-6.41838
-8.74434
-11.6292
-14.9762
-18.664
-22.5483
-26.4664
-30.244
-33.7026
-36.665
-38.9557
-40.3937
-40.7706
-39.8081
-37.0804
-31.4547
-20.309
0.905449
40.2475
109.214
216.175
330.955
-41.9865
-28.981
-18.2909
-11.0014
-6.26757
-3.36723
-1.79369
-1.25069
-1.57118
-2.65539
-4.4319
-6.83346
-9.782
-13.1801
-16.9079
-20.8236
-24.7678
-28.569
-32.0498
-35.029
-37.3195
-38.7131
-38.947
-37.633
-34.1231
-26.9499
-12.3249
16.0744
69.6786
167.597
337.633
574.2
-88.4024
-29.3727
-10.379
-3.04933
0.41681
2.14597
2.81236
2.66836
1.82262
0.33129
-1.76393
-4.41605
-7.56149
-11.114
-14.9628
-18.9741
-22.9954
-26.8605
-30.3947
-33.4152
-35.7259
-37.0959
-37.2116
-35.5722
-31.2638
-22.2938
-4.23364
30.5777
96.3142
220.82
470.768
1031.95
VECTORS velocity double
6.14522e-05 -6.14523e-05 0
0.000140615 -1.77108e-05 0
9.05885e-05 6.77372e-05 0
-0.000122625 0.000145476 0
-0.000473695 0.000205595 0
-0.000931607 0.000252317 0
-0.00147506 0.000291137 0
-0.00209047 0.000324271 0
-0.00276501 0.000350273 0
-0.00348043 0.000365141 0
-0.00420916 0.000363587 0
-0.00491285 0.000340106 0
-0.00554281 0.000289859 0
-0.00604224 0.000209564 0
-0.00635032 9.85212e-05 0
-0.00640864 -4.02089e-05 0
-0.00616989 -0.000198541 0
-0.0056072 -0.000364141 0
-0.0047227 -0.000520362 0
-0.00355505 -0.000647284 0
-0.00218343 -0.000724345 0
-0.000724748 -0.000734333 0
0.000677814 -0.000668229 0
0.00187611 -0.000530066 0
0.0027428 -0.000336625 0
0.00319622 -0.0001168 0
0.00321769 9.53319e-05 0
0.00285174 0.000270621 0
0.00219183 0.000389292 0
0.0013755 0.000427034 0
0.000599615 0.000348851 0
0.000125382 0.000125382 0
1.42636e-05 -0.000137168 0
-0.000107707 0.000100813 0
-0.000570777 0.00046231 0
-0.00139659 0.000789933 0
-0.00253456 0.00105017 0
-0.0039247 0.00125578 0
-0.00551725 0.00142368 0
-0.00726923 0.00155911 0
-0.00913347 0.00165421 0
-0.011049 0.00169214 0
-0.0129359 0.00165219 0
-0.0146948 0.00151412 0
-0.0162108 0.00126183 0
-0.0173605 0.000886674 0
-0.0180218 0.000390872 0
-0.0180872 -0.000208849 0
-0.0174786 -0.000877299 0
-0.0161609 -0.00156578 0
-0.0141528 -0.00221132 0
-0.0115366 -0.00274012 0
-0.00846376 -0.00307603 0
-0.00515175 -0.00315333 0
-0.00187112 -0.00293243 0
0.00108126 -0.00241654 0
0.0034263 -0.00166188 0
0.00495426 -0.00077294 0
0.00556669 0.000117578 0
0.00530179 0.000879221 0
0.00432493 0.00141747 0
0.00290694 0.00163318 0
0.00142271 0.00140282 0
0.000358801 0.000609563 0
-0.000109199 -4.22335e-05 0
-0.000623842 0.000642492 0
-0.00171633 0.00147619 0
-0.0033259 0.00221144 0
-0.00536027 0.002801 0
-0.00773567 0.00327049 0
-0.0103817 0.00364753 0
-0.01323 0.00393557 0
-0.0162011 0.0041131 0
-0.0191952 0.00414289 0
-0.0220897 0.00398274 0
-0.0247418 0.00359462 0
-0.0269965 0.00295201 0
-0.0286963 0.00204598 0
-0.0296941 0.000890766 0
-0.0298664 -0.000471016 0
-0.0291266 -0.0019636 0
-0.0274352 -0.00348865 0
-0.02481 -0.00492173 0
-0.0213381 -0.00611774 0
-0.0171843 -0.00692512 0
-0.0125933 -0.00720723 0
-0.0078826 -0.00686983 0
-0.0034218 -0.00589232 0
0.000404354 -0.00435729 0
0.00325738 -0.00245851 0
0.00492158 -0.000473482 0
0.00536135 0.00129541 0
0.00473661 0.00260288 0
0.00337232 0.00323005 0
0.00173462 0.00292787 0
0.000457341 0.0014257 0
-0.000272373 0.000339338 0
-0.00129242 0.00179561 0
-0.00316024 0.00328338 0
-0.00568392 0.00453749 0
-0.00871072 0.00553611 0
-0.0121311 0.00633114 0
-0.015858 0.00695985 0
-0.0198038 0.00741735 0
-0.0238634 0.00766205 0
-0.0279078 0.00763248 0
-0.0317848 0.00726451 0
-0.0353249 0.00650513 0
-0.0383514 0.00532269 0
-0.0406911 0.00371474 0
-0.0421853 0.00171408 0
-0.0427011 -0.000606215 0
-0.0421385 -0.00313076 0
-0.0404371 -0.0057144 0
-0.0375874 -0.00817087 0
-0.0336484 -0.0102795 0
-0.0287619 -0.0118037 0
-0.0231619 -0.0125195 0
-0.0171769 -0.0122532 0
-0.0112183 -0.0109284 0
-0.0057504 -0.00861521 0
-0.00123691 -0.0055671 0
0.00194451 -0.00221053 0
0.00361333 0.000923869 0
0.00386391 0.00334859 0
0.00303482 0.00467772 0
0.00165322 0.0044995 0
0.000450762 0.00233381 0
-0.000461888 0.0010736 0
-0.00206118 0.00368069 0
-0.00479981 0.00600475 0
-0.00832555 0.00786554 0
-0.0124151 0.00932444 0
-0.016933 0.010481 0
-0.0217798 0.0113837 0
-0.0268545 0.0120141 0
-0.0320358 0.0123062 0
-0.037176 0.012173 0
-0.0421055 0.0115304 0
-0.0466398 0.0103138 0
-0.0505897 0.0084904 0
-0.0537699 0.00606686 0
-0.0560083 0.00309461 0
-0.0571524 -0.000326816 0
-0.0570749 -0.00405025 0
-0.0556765 -0.00789475 0
-0.0529 -0.0116168 0
-0.0487542 -0.0149183 0
-0.0433362 -0.0174695 0
-0.036848 -0.018942 0
-0.0296081 -0.0190557 0
-0.0220524 -0.0176403 0
-0.0147162 -0.0147073 0
-0.00818644 -0.0105183 0
-0.00301209 -0.00561511 0
0.000419499 -0.000771952 0
0.00203642 0.00317692 0
0.00214238 0.00557251 0
0.00132255 0.00580614 0
0.000383803 0.00316837 0
-0.000670956 0.00220644 0
-0.00289812 0.00637431 0
-0.00656323 0.00971488 0
-0.0111399 0.0122578 0
-0.0163337 0.0142156 0
-0.0219868 0.0157607 0
-0.0279921 0.0169561 0
-0.0342425 0.0177668 0
-0.0406078 0.0181 0
-0.0469313 0.0178429 0
-0.0530335 0.0168922 0
-0.0587202 0.015173 0
-0.0637895 0.0126504 0
-0.0680397 0.00933719 0
-0.0712746 0.00529765 0
-0.0733101 0.000649757 0
-0.0739786 -0.00443584 0
-0.0731334 -0.00975277 0
-0.0706607 -0.015008 0
-0.0665082 -0.0198253 0
-0.0607143 -0.0237745 0
-0.0534314 -0.0264081 0
-0.0449475 -0.0273134 0
-0.0357008 -0.0261851 0
-0.0262795 -0.02292 0
-0.0173905 -0.0177244 0
-0.00977529 -0.0111986 0
-0.00405939 -0.00433593 0
-0.000565784 0.00163037 0
0.000866377 0.00558093 0
0.000852681 0.00663124 0
0.00029126 0.00384343 0
-0.000892384 0.00376978 0
-0.00377158 0.00991733 0
-0.00838149 0.0144469 0
-0.0140197 0.0177406 0
-0.020327 0.0202341 0
-0.0271291 0.0221974 0
-0.0343168 0.0237124 0
-0.0417817 0.0247259 0
-0.0493915 0.0251161 0
-0.0569852 0.0247438 0
-0.0643769 0.0234852 0
-0.0713623 0.0212519 0
-0.0777231 0.0180017 0
-0.0832334 0.0137463 0
-0.0876646 0.00855466 0
-0.0907922 0.00255586 0
-0.0924046 -0.00406101 0
-0.0923091 -0.0110683 0
-0.0903378 -0.0181365 0
-0.0863734 -0.0248136 0
-0.0803863 -0.0305672 0
-0.0724622 -0.0348222 0
-0.0628324 -0.0370129 0
-0.0519039 -0.0366608 0
-0.0402824 -0.033487 0
-0.02877 -0.0275588 0
-0.0183042 -0.0194452 0
-0.00980404 -0.0103055 0
-0.00391496 -0.00178276 0
-0.000731278 0.00437822 0
0.000300617 0.00681575 0
0.000193132 0.00432783 0
-0.00111612 0.00577828 0
-0.00464234 0.0143143 0
-0.0101753 0.0201928 0
-0.0168447 0.0243023 0
-0.0242364 0.0273715 0
-0.0321657 0.0297913 0
-0.0405251 0.0316655 0
-0.049209 0.0329215 0
-0.0580856 0.0334068 0
-0.0669918 0.032953 0
-0.0757356 0.0314118 0
-0.0841003 0.0286753 0
-0.0918482 0.024687 0
-0.0987255 0.0194487 0
-0.104469 0.013027 0
-0.108815 0.00555681 0
-0.111508 -0.00275664 0
-0.112318 -0.0116577 0
-0.111035 -0.0208015 0
-0.107479 -0.0296688 0
-0.101547 -0.0376311 0
-0.0932419 -0.0439876 0
-0.0827086 -0.0480106 0
-0.0702805 -0.0490198 0
-0.056528 -0.0465019 0
-0.0422949 -0.0402894 0
-0.028683 -0.0307921 0
-0.0169269 -0.0192148 0
-0.0080998 -0.00758964 0
-0.00270182 0.00160343 0
-0.000344575 0.00620139 0
9.20697e-05 0.00461303 0
-0.00132877 0.00822316 0
-0.00546177 0.0195286 0
-0.0118512 0.0269008 0
-0.0194758 0.0318883 0
-0.0278764 0.0355779 0
-0.0368622 0.0385 0
-0.0463293 0.0407834 0
-0.0561759 0.0423341 0
-0.0662718 0.0429667 0
-0.0764523 0.0424797 0
-0.0865187 0.0406953 0
-0.0962416 0.0374794 0
-0.105364 0.0327534 0
-0.113608 0.0265035 0
-0.120681 0.0187887 0
-0.126287 0.00974677 0
-0.130139 -0.000401831 0
-0.131978 -0.0113633 0
-0.131561 -0.0227957 0
-0.128661 -0.0341308 0
-0.123101 -0.044661 0
-0.114789 -0.0535746 0
-0.103758 -0.0599885 0
-0.0902193 -0.0630083 0
-0.0746447 -0.0618405 0
-0.0578411 -0.0559877 0
-0.041001 -0.0455458 0
-0.0256454 -0.0315727 0
-0.0133476 -0.0163566 0
-0.00518006 -0.00319507 0
-0.00112797 0.00459056 0
-2.29233e-05 0.00468217 0
-0.00151432 0.0110662 0
-0.00617395 0.0254782 0
-0.0133049 0.0344716 0
-0.0217586 0.0403959 0
-0.0310393 0.0447516 0
-0.0409514 0.0482242 0
-0.051394 0.0509689 0
-0.0622685 0.0528696 0
-0.0734462 0.0537049 0
-0.0847605 0.0532364 0
-0.0960076 0.0512521 0
-0.106948 0.0475862 0
-0.117313 0.0421338 0
-0.126807 0.0348613 0
-0.135122 0.0258179 0
-0.141941 0.0151433 0
-0.146961 0.00307315 0
-0.1499 -0.0100607 0
-0.1505 -0.0239148 0
-0.148507 -0.0379051 0
-0.14368 -0.051273 0
-0.13583 -0.0631248 0
-0.124852 -0.0724477 0
-0.110797 -0.0781423 0
-0.0939664 -0.0791117 0
-0.075037 -0.0744496 0
-0.0551823 -0.0637786 0
-0.0361168 -0.0477611 0
-0.0199108 -0.0286721 0
-0.00838272 -0.0105751 0
-0.00216201 0.00169782 0
-0.000175697 0.00448355 0
-0.00165564 0.0142362 0
-0.0067204 0.0320326 0
-0.0144288 0.0427565 0
-0.0235348 0.0496708 0
-0.0335111 0.0547336 0
-0.0441554 0.0587984 0
-0.0553672 0.0620491 0
-0.0670494 0.0643462 0
-0.0790743 0.0654308 0
-0.0912749 0.0650255 0
-0.103445 0.0628805 0
-0.115343 0.0587966 0
-0.126696 0.0526406 0
-0.137206 0.0443591 0
-0.146563 0.0339911 0
-0.154451 0.0216778 0
-0.16056 0.00766813 0
-0.164596 -0.00768116 0
-0.166308 -0.0239825 0
-0.165446 -0.0406929 0
-0.16172 -0.0570373 0
-0.154848 -0.0720834 0
-0.144581 -0.0847336 0
-0.130773 -0.0937197 0
-0.113489 -0.097648 0
-0.0931781 -0.0951541 0
-0.0708611 -0.0852458 0
-0.0483011 -0.0679193 0
-0.0279731 -0.045048 0
-0.0125332 -0.0211672 0
-0.00356306 -0.00290089 0
-0.000387487 0.00392037 0
-0.00173662 0.0176285 0
-0.00704666 0.0390151 0
-0.0151237 0.0515593 0
-0.0246578 0.059508 0
-0.0350929 0.0653078 0
-0.0462153 0.069991 0
-0.0579207 0.0737738 0
-0.0701114 0.0764945 0
-0.0826604 0.0778565 0
-0.0954027 0.0775428 0
-0.108135 0.0752661 0
-0.12062 0.0707943 0
-0.132593 0.0639679 0
-0.143767 0.054716 0
-0.153846 0.0430701 0
-0.162533 0.0291738 0
-0.169539 0.0132878 0
-0.174591 -0.00421343 0
-0.177453 -0.0228759 0
-0.177886 -0.042229 0
-0.175589 -0.0615243 0
-0.170209 -0.0798485 0
-0.161358 -0.0960861 0
-0.148669 -0.108864 0
-0.131923 -0.116534 0
-0.111238 -0.117264 0
-0.0873451 -0.109346 0
-0.0618745 -0.0918501 0
-0.0375298 -0.06579 0
-0.0177726 -0.0356223 0
-0.00544155 -0.00974705 0
-0.000691738 0.00284114 0
-0.00174445 0.0211095 0
-0.00710944 0.0462091 0
-0.0153101 0.0606431 0
-0.0250104 0.0696586 0
-0.0356258 0.0762078 0
-0.0469245 0.0815122 0
-0.0587932 0.0858266 0
-0.0711315 0.0889706 0
-0.0838141 0.090612 0
-0.0966807 0.0903961 0
-0.109536 0.088001 0
-0.122157 0.0831652 0
-0.134296 0.0757079 0
-0.145692 0.0655461 0
-0.156081 0.0527088 0
-0.165206 0.0373465 0
-0.172818 0.0197336 0
-0.178691 0.000264614 0
-0.182621 -0.0205612 0
-0.184406 -0.0423255 0
-0.183774 -0.0643576 0
-0.180335 -0.0858341 0
-0.17358 -0.105707 0
-0.16292 -0.122591 0
-0.147809 -0.134664 0
-0.127959 -0.139668 0
-0.103668 -0.135126 0
-0.0762361 -0.118973 0
-0.0483605 -0.0908878 0
-0.0241477 -0.0544944 0
-0.00788757 -0.0194661 0
-0.00111329 0.00103612 0
-0.00167182 0.0245258 0
-0.00688307 0.0533691 0
-0.0149401 0.0697408 0
-0.0245207 0.0798418 0
-0.0350118 0.0871311 0
-0.0461557 0.0930314 0
-0.057825 0.0978454 0
-0.0699151 0.10138 0
-0.082303 0.103273 0
-0.0948368 0.103136 0
-0.107336 0.100616 0
-0.119596 0.0954307 0
-0.131399 0.0873836 0
-0.14252 0.076388 0
-0.152743 0.062479 0
-0.161863 0.045821 0
-0.169699 0.0267072 0
-0.176087 0.00555113 0
-0.18088 -0.0171237 0
-0.183947 -0.0409105 0
-0.185084 -0.065268 0
-0.183909 -0.0895382 0
-0.179826 -0.112841 0
-0.172046 -0.133896 0
-0.159686 -0.15083 0
-0.141988 -0.161051 0
-0.118693 -0.161329 0
-0.0905714 -0.148323 0
-0.0600412 -0.119943 0
-0.031582 -0.0781109 0
-0.0109583 -0.0327335 0
-0.00167598 -0.00175315 0
-0.00151841 0.027716 0
-0.00636429 0.060236 0
-0.0140041 0.0785707 0
-0.0231725 0.089761 0
-0.033228 0.0977584 0
-0.0438793 0.104199 0
-0.0549802 0.109448 0
-0.0664204 0.113308 0
-0.0780816 0.115394 0
-0.089824 0.115291 0
-0.101486 0.112623 0
-0.112891 0.107089 0
-0.123853 0.0984903 0
-0.134194 0.0867437 0
-0.143751 0.0719019 0
-0.152387 0.0541547 0
-0.16 0.0338225 0
-0.166515 0.0113385 0
-0.171859 -0.0127732 0
-0.176 -0.0380531 0
-0.178847 -0.0641417 0
-0.180072 -0.0906147 0
-0.179055 -0.116865 0
-0.174851 -0.141856 0
-0.16626 -0.163822 0
-0.152027 -0.17999 0
-0.131239 -0.186472 0
-0.103945 -0.178595 0
-0.0719932 -0.152153 0
-0.0398805 -0.106474 0
-0.0146703 -0.0502047 0
-0.00240273 -0.00583187 0
-0.00129164 0.0305261 0
-0.00557453 0.0665547 0
-0.0125358 0.086853 0
-0.0210109 0.0991222 0
-0.0303324 0.107774 0
-0.0401693 0.114672 0
-0.0503516 0.120259 0
-0.0607637 0.12435 0
-0.0712943 0.126545 0
-0.0818208 0.126409 0
-0.0922065 0.123552 0
-0.102306 0.117664 0
-0.111973 0.108546 0
-0.121074 0.0961303 0
-0.129501 0.0804986 0
-0.137187 0.0618797 0
-0.144113 0.0406371 0
-0.150309 0.0172353 0
-0.155832 -0.00780333 0
-0.160749 -0.0339653 0
-0.165075 -0.0610567 0
-0.168609 -0.0889395 0
-0.170787 -0.11738 0
-0.170593 -0.145739 0
-0.166572 -0.172551 0
-0.156988 -0.195077 0
-0.140211 -0.20895 0
-0.115404 -0.208219 0
-0.083555 -0.18633 0
-0.0487626 -0.139202 0
-0.0190256 -0.0724239 0
-0.00333561 -0.0115702 0
-0.00100649 0.0328242 0
-0.0045597 0.0720927 0
-0.0106112 0.0943278 0
-0.0181409 0.107652 0
-0.0264616 0.116886 0
-0.0351974 0.124132 0
-0.0441519 0.129935 0
-0.0532041 0.134137 0
-0.0622542 0.136338 0
-0.0712027 0.136091 0
-0.0799445 0.132998 0
-0.0883723 0.126745 0
-0.0963838 0.117143 0
-0.103893 0.104143 0
-0.110843 0.0878635 0
-0.117228 0.0685857 0
-0.123106 0.0467347 0
-0.128602 0.0228303 0
-0.133896 -0.00258204 0
-0.139169 -0.0289965 0
-0.144567 -0.056301 0
-0.150065 -0.0846631 0
-0.155243 -0.114301 0
-0.159135 -0.14512 0
-0.160144 -0.176182 0
-0.156124 -0.205051 0
-0.144718 -0.227158 0
-0.124079 -0.235456 0
-0.0940556 -0.220965 0
-0.0579009 -0.175514 0
-0.0240259 -0.0997237 0
-0.00454023 -0.019446 0
-0.000684391 0.0345151 0
-0.00338767 0.0766583 0
-0.00834557 0.100772 0
-0.014722 0.115115 0
-0.0218208 0.124843 0
-0.0292192 0.132309 0
-0.0366919 0.138185 0
-0.0441143 0.142362 0
-0.0514031 0.144452 0
-0.0584892 0.144011 0
-0.065308 0.140638 0
-0.0717994 0.134024 0
-0.0779118 0.123988 0
-0.0836105 0.110505 0
-0.0888901 0.0937313 0
-0.0937916 0.0740046 0
-0.0984221 0.0518235 0
-0.10297 0.0277852 0
-0.107699 0.00248599 0
-0.112901 -0.0235894 0
-0.118862 -0.0503486 0
-0.125754 -0.0782256 0
-0.1334 -0.107915 0
-0.141029 -0.139986 0
-0.147076 -0.174259 0
-0.149129 -0.208941 0
-0.144168 -0.239635 0
-0.129263 -0.258524 0
-0.102879 -0.254305 0
-0.0669593 -0.214248 0
-0.0296788 -0.132145 0
-0.00610142 -0.0300877 0
-0.000351693 0.0355512 0
-0.00214435 0.0801181 0
-0.00588753 0.106013 0
-0.0109602 0.121323 0
-0.0166717 0.131446 0
-0.0225546 0.138988 0
-0.0283542 0.144778 0
-0.0339446 0.148782 0
-0.0392647 0.150641 0
-0.0442835 0.149927 0
-0.0489863 0.146244 0
-0.0533703 0.139293 0
-0.0574448 0.128905 0
-0.061235 0.115077 0
-0.0647886 0.0979933 0
-0.0681868 0.0780423 0
-0.0715607 0.05579 0
-0.0751116 0.0319171 0
-0.079126 0.00709757 0
-0.0839577 -0.0181673 0
-0.0899989 -0.0437685 0
-0.0976088 -0.0703036 0
-0.106915 -0.0988848 0
-0.117506 -0.130795 0
-0.128081 -0.166827 0
-0.136194 -0.206207 0
-0.13832 -0.245203 0
-0.130462 -0.275719 0
-0.109504 -0.284452 0
-0.0756187 -0.253906 0
-0.0359918 -0.169394 0
-0.00810932 -0.0442984 0
-3.85003e-05 0.0359414 0
-0.000930139 0.0824122 0
-0.00341346 0.109945 0
-0.00709853 0.126148 0
-0.0113183 0.136552 0
-0.0155678 0.144015 0
-0.0195653 0.149549 0
-0.0231872 0.153223 0
-0.0263994 0.154732 0
-0.0292168 0.153672 0
-0.0316822 0.149667 0
-0.0338589 0.142431 0
-0.0358267 0.13181 0
-0.0376805 0.117816 0
-0.0395303 0.100657 0
-0.0415022 0.0807486 0
-0.0437441 0.0586995 0
-0.0464388 0.0352531 0
-0.0498278 0.0111649 0
-0.0542382 -0.0129926 0
-0.0600781 -0.037062 0
-0.0678186 -0.0616598 0
-0.0778846 -0.0881563 0
-0.0903453 -0.118472 0
-0.104427 -0.154493 0
-0.117991 -0.196864 0
-0.127295 -0.243117 0
-0.127402 -0.285556 0
-0.113511 -0.309463 0
-0.0835783 -0.292713 0
-0.0429575 -0.210835 0
-0.0106448 -0.0630526 0
0.000218053 0.0357618 0
0.000137152 0.0835643 0
-0.0011252 0.112539 0
-0.0034117 0.129526 0
-0.00609576 0.140078 0
-0.00864895 0.147292 0
-0.0107701 0.152391 0
-0.0123431 0.155576 0
-0.0133665 0.156615 0
-0.0139056 0.155146 0
-0.0140663 0.150819 0
-0.0139822 0.143371 0
-0.013809 0.132664 0
-0.013718 0.118725 0
-0.0138907 0.101771 0
-0.0145108 0.0822268 0
-0.015758 0.0607104 0
-0.0178039 0.0379829 0
-0.0208216 0.0148418 0
-0.0250215 -0.00805926 0
-0.0307003 -0.0304766 0
-0.0382996 -0.0529054 0
-0.0484132 -0.076731 0
-0.0615858 -0.104264 0
-0.0777891 -0.138416 0
-0.0956047 -0.181562 0
-0.111528 -0.233192 0
-0.119996 -0.286905 0
-0.114541 -0.327461 0
-0.0905215 -0.328668 0
-0.0505286 -0.255494 0
-0.0137688 -0.0874663 0
0.000389274 0.0351545 0
0.000928504 0.0837133 0
0.000738977 0.113842 0
-0.000205226 0.131454 0
-0.00136137 0.14199 0
-0.00219699 0.148768 0
-0.00240628 0.153245 0
-0.00189033 0.155779 0
-0.000686231 0.156231 0
0.00108705 0.154295 0
0.00325825 0.149659 0
0.00562036 0.142085 0
0.00794157 0.131456 0
0.00997375 0.11781 0
0.0114624 0.10137 0
0.0121596 0.082551 0
0.0118401 0.0619528 0
0.0103189 0.0403077 0
0.00746386 0.0183897 0
0.0031882 -0.00313163 0
-0.00261704 -0.0239202 0
-0.0102017 -0.0442778 0
-0.0200921 -0.0653546 0
-0.0331053 -0.0894547 0
-0.0499772 -0.12015 0
-0.0703907 -0.161598 0
-0.0916983 -0.215924 0
-0.108268 -0.279135 0
-0.112215 -0.33674 0
-0.096037 -0.359587 0
-0.0585691 -0.302036 0
-0.0175091 -0.118744 0
0.000453508 0.0343117 0
0.00134106 0.0831293 0
0.001941 0.114015 0
0.00217885 0.131986 0
0.00250811 0.142284 0
0.00340412 0.148414 0
0.00514032 0.152072 0
0.00778009 0.153796 0
0.0112371 0.153553 0
0.0153309 0.151106 0
0.0198221 0.146186 0
0.0244328 0.138586 0
0.0288589 0.128208 0
0.0327818 0.115103 0
0.0358819 0.0994883 0
0.0378559 0.0817613 0
0.0384386 0.0624793 0
0.0374276 0.0423134 0
0.0347044 0.0219622 0
0.0302445 0.00203149 0
0.0240903 -0.0171238 0
0.0162263 -0.0356256 0
0.00639189 -0.054282 0
-0.00615135 -0.0749709 0
-0.0225843 -0.101329 0
-0.0437812 -0.138809 0
-0.06862 -0.192567 0
-0.0922651 -0.262277 0
-0.106013 -0.335903 0
-0.0994843 -0.38313 0
-0.0667601 -0.348685 0
-0.021831 -0.158084 0
0.00036926 0.033489 0
0.00123061 0.0822032 0
0.00222595 0.113346 0
0.00340263 0.131241 0
0.00513362 0.140969 0
0.00777374 0.146192 0
0.0115011 0.14883 0
0.016305 0.149594 0
0.0220325 0.14857 0
0.0284373 0.14559 0
0.035214 0.140433 0
0.0420199 0.132922 0
0.0484891 0.122977 0
0.0542462 0.110654 0
0.0589227 0.0961605 0
0.0621773 0.0798605 0
0.063721 0.0622537 0
0.0633427 0.0439284 0
0.0609297 0.0254835 0
0.0564723 0.00742753 0
0.0500416 -0.00993493 0
0.0417208 -0.0266297 0
0.0314786 -0.0432013 0
0.0190107 -0.0610405 0
0.00340627 -0.0832224 0
-0.0170284 -0.115284 0
-0.0431403 -0.165141 0
-0.0719829 -0.237215 0
-0.0951407 -0.324059 0
-0.0998003 -0.396843 0
-0.0744342 -0.393062 0
-0.0265775 -0.206493 0
5.76019e-05 0.0330621 0
0.000362354 0.0814639 0
0.00124433 0.112208 0
0.00306932 0.129377 0
0.00611657 0.138055 0
0.0105373 0.142046 0
0.0163334 0.143453 0
0.0233677 0.143133 0
0.0313971 0.141274 0
0.0401048 0.137774 0
0.0491257 0.132452 0
0.0580644 0.125158 0
0.0665089 0.115827 0
0.0740457 0.10451 0
0.0802769 0.0913964 0
0.0848426 0.0768043 0
0.087445 0.0611637 0
0.0878723 0.0449694 0
0.0860131 0.0287146 0
0.0818559 0.0128109 0
0.0754651 -0.00249687 0
0.0669435 -0.0172253 0
0.0563582 -0.0317782 0
0.0436189 -0.0472563 0
0.0282685 -0.0660518 0
0.00913887 -0.0928905 0
-0.0159977 -0.136286 0
-0.0473297 -0.205896 0
-0.0784194 -0.301131 0
-0.0952551 -0.398275 0
-0.0803118 -0.431939 0
-0.031357 -0.264427 0
-0.000626475 0.033631 0
-0.00165999 0.0816238 0
-0.00150778 0.111014 0
0.000704402 0.126534 0
0.00505022 0.133505 0
0.0113593 0.135866 0
0.0193627 0.135833 0
0.028738 0.134344 0
0.0391278 0.131645 0
0.050144 0.127679 0
0.0613733 0.122297 0
0.0723846 0.115364 0
0.0827404 0.106821 0
0.0920095 0.0967102 0
0.0997855 0.0851892 0
0.105708 0.0725237 0
0.109483 0.0590663 0
0.110907 0.045216 0
0.10987 0.0313636 0
0.10636 0.0178288 0
0.100441 0.00479567 0
0.0922137 -0.00776889 0
0.0817688 -0.0202044 0
0.0691017 -0.0334237 0
0.0539648 -0.0493972 0
0.0356211 -0.0720718 0
0.0124752 -0.108822 0
-0.0180983 -0.171454 0
-0.0542451 -0.268337 0
-0.0831867 -0.385293 0
-0.0821073 -0.460945 0
-0.0353499 -0.331134 0
-0.00192387 0.0361813 0
-0.00542618 0.0836093 0
-0.00670825 0.110158 0
-0.00424749 0.122717 0
0.00157386 0.127155 0
0.0100323 0.127449 0
0.0204818 0.125798 0
0.0323712 0.123114 0
0.045219 0.119637 0
0.058575 0.115315 0
0.0719961 0.110011 0
0.0850389 0.103596 0
0.097263 0.0960087 0
0.108243 0.087273 0
0.117585 0.0775085 0
0.124945 0.0669221 0
0.13005 0.0557873 0
0.132712 0.0444097 0
0.132835 0.0330833 0
0.130413 0.022041 0
0.125514 0.0114022 0
0.118255 0.00111046 0
0.10875 -0.0091337 0
0.0970103 -0.0200877 0
0.0828386 -0.0334245 0
0.0656651 -0.0525273 0
0.0442353 -0.0837911 0
0.0162915 -0.137968 0
-0.0206235 -0.228761 0
-0.0597856 -0.356764 0
-0.0759769 -0.474361 0
-0.0369841 -0.403468 0
-0.00428825 0.0423934 0
-0.0118511 0.0884624 0
-0.0150681 0.109804 0
-0.0120899 0.117632 0
-0.00426312 0.118592 0
0.00686529 0.116425 0
0.0201629 0.113074 0
0.0348398 0.109271 0
0.050313 0.105159 0
0.0661 0.10065 0
0.0817585 0.095596 0
0.0968612 0.0898651 0
0.110993 0.0833838 0
0.123759 0.0761521 0
0.134799 0.068247 0
0.143809 0.0598141 0
0.15055 0.0510486 0
0.154869 0.0421677 0
0.156695 0.033376 0
0.156039 0.0248266 0
0.152977 0.0165778 0
0.147628 0.00854297 0
0.14013 0.000436839 0
0.130545 -0.00833326 0
0.118659 -0.0191211 0
0.103879 -0.0348778 0
0.0850193 -0.0611511 0
0.0598273 -0.107472 0
0.0250137 -0.187529 0
-0.0200403 -0.313781 0
-0.0558233 -0.46537 0
-0.0334114 -0.473863 0
-0.00837641 0.0550581 0
-0.0218156 0.0967998 0
-0.026405 0.109273 0
-0.0215271 0.110307 0
-0.0103782 0.106941 0
0.00443744 0.102132 0
0.0213113 0.0971961 0
0.0392887 0.092495 0
0.0577602 0.0879905 0
0.0762699 0.083522 0
0.0944218 0.0789139 0
0.111843 0.0740235 0
0.128175 0.0687616 0
0.143083 0.0631008 0
0.156266 0.0570742 0
0.167477 0.0507664 0
0.176534 0.0442984 0
0.183326 0.0378065 0
0.187821 0.0314164 0
0.190049 0.0252141 0
0.190089 0.0192122 0
0.188039 0.0133076 0
0.183985 0.00722444 0
0.177989 0.000460001 0
0.169913 -0.00795147 0