# vtk DataFile Version 2.0
Lid-driven cavity
ASCII
DATASET STRUCTURED_POINTS
DIMENSIONS 32 32 1
ORIGIN 0.015625 0.015625 0
SPACING 0.03125 0.03125 1
POINT_DATA 1024
SCALARS pressure double 1
LOOKUP_TABLE default
12.7526
12.7216
12.6818
12.6493
12.631
12.6291
12.6444
12.6778
12.7308
12.8058
12.9048
13.0298
13.181
13.3571
13.5542
13.7655
13.9817
14.1905
14.3778
14.5295
14.6334
14.6814
14.672
14.6105
14.5082
14.3812
14.247
14.1211
14.0167
13.944
13.9095
13.9116
12.7836
12.7511
12.7194
12.6959
12.6846
12.687
12.7041
12.7374
12.7884
12.8594
12.9524
13.069
13.2097
13.3733
13.5563
13.7526
13.9536
14.1477
14.3217
14.4624
14.5581
14.6015
14.5917
14.5345
14.4411
14.3266
14.2074
14.0972
14.0061
13.9422
13.9105
13.9137
12.8243
12.7791
12.7464
12.7263
12.7187
12.7232
12.7402
12.7709
12.8172
12.8814
12.9659
13.0727
13.2029
13.3559
13.5293
13.7178
13.9125
14.102
14.2733
14.4123
14.5068
14.549
14.5375
14.4784
14.3843
14.271
14.1548
14.0495
13.9638
13.9038
13.8737
13.8782
12.853
12.7916
12.7534
12.7329
12.7257
12.7293
12.7431
12.768
12.8061
12.8599
12.9326
13.027
13.1452
13.288
13.454
13.6392
13.8341
14.0272
14.2047
14.3514
14.4534
14.501
14.4914
14.4301
14.3304
14.2106
14.0889
13.9795
13.8915
13.8298
13.7976
13.7995
12.8512
12.773
12.7278
12.7042
12.6944
12.6937
12.7004
12.7153
12.7405
12.7791
12.8352
12.9126
13.015
13.1448
13.3024
13.4855
13.6844
13.8873
14.0798
14.2452
14.367
14.4323
14.4351
14.3786
14.2758
14.1465
14.0123
13.8911
13.7925
13.7221
13.6826
13.6778
12.8013
12.7071
12.6543
12.6258
12.6104
12.6015
12.5966
12.5961
12.6022
12.6188
12.6508
12.7035
12.7823
12.8918
13.0348
13.2116
13.414
13.6302
13.846
14.0434
14.2026
14.3057
14.341
14.3068
14.2127
14.0787
13.9296
13.7886
13.6706
13.5829
13.5292
13.5133
12.6858
12.5765
12.5159
12.4809
12.4567
12.4352
12.413
12.3899
12.3685
12.3531
12.3494
12.3645
12.4059
12.481
12.5957
12.7543
12.9528
13.1807
13.426
13.6702
13.8897
14.0602
14.1611
14.1809
14.1216
13.9992
13.8408
13.676
13.5288
13.4132
13.3361
13.3037
12.4864
12.3631
12.2944
12.2509
12.2143
12.1746
12.1275
12.0724
12.0115
11.9493
11.8927
11.8502
11.832
11.8492
11.9122
12.0303
12.2064
12.4357
12.7113
13.0158
13.3227
13.5998
13.8139
13.9385
13.9603
13.8848
13.736
13.5506
13.3657
13.209
13.0983
13.042
12.1845
12.0484
11.9709
11.9161
11.8621
11.7971
11.7153
11.6152
11.4982
11.3687
11.2341
11.105
10.9948
10.9191
10.8946
10.9373
11.0595
11.2663
11.5623
11.9349
12.3563
12.7859
13.1754
13.4766
13.6519
13.6852
13.5884
13.4004
13.1755
12.9654
12.8053
12.7154
11.7622
11.6145
11.527
11.4571
11.3792
11.2793
11.15
10.9877
10.7927
10.5685
10.3229
10.0683
9.8221
9.60585
9.44429
9.36291
9.38461
9.52769
9.81882
10.2549
10.8106
11.4393
12.0756
12.6446
13.0743
13.3126
13.3436
13.1973
12.9434
12.6679
12.4409
12.3047
11.2035
11.0456
10.946
10.8556
10.7456
10.5991
10.4061
10.1607
9.8605
9.50779
9.11017
8.682
8.24503
7.82827
7.46667
7.19818
7.05954
7.0804
7.32051
7.79649
8.49105
9.35514
10.3089
11.248
12.0574
12.6331
12.9102
12.8884
12.6421
12.2987
11.9862
11.7845
10.496
10.3292
10.2148
10.0978
9.94575
9.73882
9.46363
9.11072
8.67458
8.15494
7.55876
6.90216
6.21187
5.52556
4.8904
4.35968
3.98711
3.81914
3.93891
4.40741
5.22087
6.33478
7.66042
9.06696
10.3924
11.4674
12.1532
12.3883
12.226
11.8309
11.4127
11.1219
9.63275
9.45878
9.32635
9.17573
8.97098
8.68888
8.31199
7.82642
7.22234
6.4962
5.65356
4.71207
3.7037
2.67569
1.68923
0.815519
0.128827
-0.303423
-0.387594
0.00276686
0.885549
2.22979
3.94815
5.89267
7.85887
9.6055
10.8976
11.5742
11.6243
11.2261
10.6879
10.2786
8.61409
8.4348
8.28134
8.09026
7.8226
7.45147
6.95479
6.3134
5.5123
4.54379
3.41135
2.13368
0.747969
-0.688518
-2.09947
-3.39383
-4.47377
-5.24599
-5.61652
-5.39445
-4.52201
-3.0079
-0.925042
1.57754
4.26772
6.8383
8.94534
10.29
10.7389
10.4329
9.77591
9.213
7.44852
7.26613
7.08936
6.85243
6.51383
6.04295
5.41275
4.59822
3.57854
2.34114
0.886745
-0.765422
-2.57336
-4.4699
-6.36337
-8.14215
-9.6835
-10.8664
-11.5859
-11.6282
-10.8682
-9.28449
-6.92225
-3.91087
-0.484952
3.00426
6.10859
8.36364
9.44838
9.38569
8.63816
7.88002
6.15286
5.97002
5.76923
5.48382
5.07033
4.49465
3.72467
2.72933
1.48158
-0.0364738
-1.8274
-3.8721
-6.12443
-8.50801
-10.9165
-13.2184
-15.2665
-16.9125
-18.0251
-18.4084
-17.8707
-16.3461
-13.8419
-10.447
-6.36619
-1.95706
2.25619
5.63874
7.62321
8.01075
7.23841
6.23867
4.75118
4.571
4.34784
4.01546
3.52911
2.85154
1.94578
0.774769
-0.694806
-2.48638
-4.60624
-7.03603
-9.72638
-12.5929
-15.5161
-18.3465
-20.9145
-23.0463
-24.5823
-25.3469
-25.1254
-23.796
-21.3207
-17.7321
-13.1728
-7.95803
-2.63524
2.01838
5.15519
6.24191
5.55518
4.26697
3.27253
3.09851
2.85761
2.48518
1.93562
1.16893
0.143605
-1.18309
-2.85054
-4.88773
-7.30488
-10.085
-13.1767
-16.4892
-19.8924
-23.2213
-26.2877
-28.896
-30.8623
-32.0183
-32.1651
-31.1491
-28.8763
-25.3184
-20.5317
-14.7388
-8.43926
-2.48698
1.99817
4.05017
3.60662
1.99071
1.74776
1.58356
1.33309
0.933942
0.33971
-0.492319
-1.60785
-3.05495
-4.87874
-7.11352
-9.77363
-12.8442
-16.2728
-19.9648
-23.7819
-27.5479
-31.06
-34.1058
-36.4834
-38.0182
-38.5431
-37.9109
-35.9845
-32.6736
-27.9414
-21.8794
-14.862
-7.72106
-1.78616
1.48647
1.49247
-0.467886
0.205802
0.0548441
-0.193193
-0.598455
-1.20908
-2.07111
-3.2346
-4.75271
-6.67588
-9.04346
-11.8739
-15.1549
-18.8348
-22.817
-26.959
-31.0773
-34.9593
-38.3812
-41.1287
-43.0168
-43.9021
-43.6639
-42.1696
-39.271
-34.8501
-28.8526
-21.4612
-13.3676
-5.99142
-1.27068
-0.550563
-2.82438
-1.33083
-1.46533
-1.69486
-2.07752
-2.66581
-3.51108
-4.66868
-6.19693
-8.15123
-10.5754
-13.4918
-16.891
-20.7235
-24.8932
-29.257
-33.6289
-37.7919
-41.5156
-44.5778
-46.7854
-48.0006
-48.13
-47.0751
-44.6778
-40.7509
-35.1088
-27.7051
-18.9734
-10.2548
-3.87754
-2.09062
-4.55657
-2.8517
-2.96708
-3.15544
-3.47743
-3.99351
-4.76437
-5.85283
-7.32283
-9.2342
-11.6344
-14.5487
-17.9706
-21.8533
-26.1039
-30.5821
-35.1042
-39.4542
-43.4006
-46.7169
-49.2035
-50.7154
-51.1733
-50.5109
-48.616
-45.2647
-40.1715
-33.0599
-24.0102
-14.0837
-5.81472
-2.45432
-4.8273
-4.35834
-4.45567
-4.57489
-4.78474
-5.16547
-5.79402
-6.74396
-8.08583
-9.88353
-12.1872
-15.0241
-18.3891
-22.2368
-26.4764
-30.9704
-35.5398
-39.9742
-44.0487
-47.5423
-50.2572
-52.0362
-52.7861
-52.4524
-50.9779
-48.1846
-43.7104
-37.0808
-27.9623
-16.9207
-6.41558
-0.70382
-2.40775
-5.86877
-5.94966
-5.96461
-5.99922
-6.16845
-6.57776
-7.31735
-8.46561
-10.0894
-12.2392
-14.9415
-18.1902
-21.9393
-26.0984
-30.5327
-35.0676
-39.4998
-43.6131
-47.1958
-50.0586
-52.0459
-53.0516
-53.0011
-51.8397
-49.4744
-45.5701
-39.4712
-30.4065
-18.2278
-4.92941
4.35989
4.40812
-7.42702
-7.48981
-7.34756
-7.12397
-6.99071
-7.09623
-7.55366
-8.44972
-9.8516
-11.8066
-14.3368
-17.4322
-21.0438
-25.0804
-29.4087
-33.8582
-38.2321
-42.3225
-45.9267
-48.8637
-50.9849
-52.1792
-52.3605
-51.4431
-49.32
-45.7497
-40.0796
-31.035
-17.5357
-0.585595
14.1821
17.9255
-9.12576
-9.15941
-8.76972
-8.1691
-7.62264
-7.33467
-7.44402
-8.04258
-9.19259
-10.9328
-13.2766
-16.2064
-19.6683
-23.5685
-27.7741
-32.1183
-36.4101
-40.4482
-44.0368
-47.0004
-49.194
-50.5065
-50.8413
-50.0882
-48.0846
-44.5477
-38.8291
-29.5723
-14.3744
7.42623
30.4763
41.2612
-11.1455
-11.1097
-10.3162
-9.15996
-8.05787
-7.28499
-6.99335
-7.26916
-8.16021
-9.68948
-11.8565
-14.6329
-17.9576
-21.7331
-25.8264
-30.0732
-34.2874
-38.2733
-41.8397
-44.8125
-47.0446
-48.4188
-48.8343
-48.1469
-46.1325
-42.3802
-36.0881
-25.5811
-7.98632
20.2196
55.3938
78.7322
-13.8576
-13.6083
-12.1063
-10.1256
-8.29159
-6.94471
-6.22084
-6.17497
-6.82566
-8.17146
-10.1932
-12.8491
-16.0693
-19.752
-23.7632
-27.9409
-32.1031
-36.0582
-39.6174
-42.6052
-44.8664
-46.2674
-46.6892
-45.9789
-43.8112
-39.5928
-32.17
-19.2542
3.15587
39.9412
92.0501
136.484
-18.1208
-17.1515
-14.2937
-11.0586
-8.28774
-6.29695
-5.14327
-4.80917
-5.26512
-6.47655
-8.40182
-10.9845
-14.1455
-17.7784
-21.748
-25.8941
-30.0376
-33.9902
-37.564
-40.5798
-42.8707
-44.2796
-44.6455
-43.7753
-41.3174
-36.341
-27.1227
-10.3872
19.6746
70.6575
145.752
223.086
-26.1309
-22.5485
-16.894
-11.7373
-7.83424
-5.20204
-3.67962
-3.13809
-3.47994
-4.63105
-6.52628
-9.09482
-12.2492
-15.8787
-19.8474
-23.9961
-28.1485
-32.1187
-35.7191
-38.7657
-41.0787
-42.4737
-42.7384
-41.5863
-38.5753
-32.5
-20.6171
1.8365
43.2871
115.736
227.885
348.07
-43.5286
-29.8826
-18.6261
-10.9277
-5.92574
-2.87571
-1.2493
-0.735234
-1.15512
-2.39916
-4.38576
-7.03641
-10.2604
-13.9466
-17.9606
-22.1462
-26.3308
-30.3316
-33.9613
-37.032
-39.3508
-40.7045
-40.8224
-39.3021
-35.4675
-27.7614
-12.2133
17.7956
74.2288
177.077
355.425
603.401
-92.1481
-30.2872
-10.3257
-2.57855
1.09971
2.92566
3.60338
3.39874
2.42931
0.759359
-1.56056
-4.47321
-7.9032
-11.7512
-15.8926
-20.1799
-24.4476
-28.5184
-32.208
-35.3262
-37.6705
-39.0031
-38.9997
-37.1389
-32.4632
-22.8713
-3.72251
33.0046
102.149
232.863
494.988
1083.22
VECTORS velocity double
6.36163e-05 -6.36164e-05 0
0.000149581 -2.23489e-05 0
0.000108807 6.3123e-05 0
-9.67976e-05 0.000142482 0
-0.000444262 0.000204982 0
-0.00090355 0.000254306 0
-0.00145349 0.000295639 0
-0.00208016 0.000331028 0
-0.00277011 0.000358921 0
-0.00350425 0.000375221 0
-0.00425401 0.000374538 0
-0.00497979 0.000351241 0
-0.00563139 0.000300361 0
-0.00615026 0.000218508 0
-0.00647369 0.000104923 0
-0.00654131 -3.73082e-05 0
-0.00630404 -0.000199964 0
-0.00573371 -0.000370368 0
-0.00483197 -0.000531368 0
-0.00363819 -0.000662409 0
-0.00223353 -0.00074225 0
-0.00073821 -0.000753073 0
0.000700364 -0.000685501 0
0.0019295 -0.000543639 0
0.00281794 -0.000344799 0
0.00328163 -0.000118893 0
0.00330171 9.88177e-05 0
0.00292457 0.000278324 0
0.00224671 0.000399537 0
0.00140938 0.000437791 0
0.000614164 0.000357423 0
0.00012837 0.00012837 0
1.9078e-05 -0.000146311 0
-9.03484e-05 8.38065e-05 0
-0.000539425 0.000446818 0
-0.00135703 0.000781998 0
-0.00249699 0.00105289 0
-0.0039014 0.0012701 0
-0.00552077 0.00144915 0
-0.00731096 0.00159437 0
-0.0092227 0.00169726 0
-0.0111922 0.00174052 0
-0.0131362 0.001703 0
-0.0149517 0.00156408 0
-0.0165199 0.00130733 0
-0.0177134 0.000923927 0
-0.0184066 0.000416151 0
-0.0184886 -0.000198925 0
-0.0178789 -0.000885393 0
-0.0165409 -0.00159322 0
-0.0144935 -0.00225765 0
-0.0118207 -0.00280272 0
-0.00867729 -0.00315001 0
-0.00528623 -0.0032317 0
-0.00192489 -0.00300678 0
0.00110185 -0.00247823 0
0.00350693 -0.00170373 0
0.00507439 -0.000791111 0
0.00570271 0.00012264 0
0.00543127 0.000903078 0
0.00443023 0.00145368 0
0.00297758 0.00167363 0
0.00145735 0.00143703 0
0.000367578 0.000624319 0
-0.000104397 -6.09923e-05 0
-0.000608289 0.000611806 0
-0.00169269 0.00145229 0
-0.00330492 0.00220636 0
-0.00535754 0.0028211 0
-0.0077689 0.00331766 0
-0.0104682 0.00372029 0
-0.0133849 0.00403008 0
-0.0164355 0.00422388 0
-0.0195154 0.00426333 0
-0.0224967 0.00410547 0
-0.0252313 0.00371177 0
-0.027559 0.00305551 0
-0.0293177 0.00212798 0
-0.0303564 0.000944033 0
-0.0305487 -0.000452529 0
-0.0298061 -0.00198423 0
-0.0280881 -0.00355026 0
-0.0254132 -0.00502291 0
-0.0218702 -0.0062533 0
-0.0176272 -0.00708586 0
-0.0129339 -0.00738018 0
-0.00811454 -0.00703902 0
-0.00354684 -0.00604043 0
0.00037498 -0.00446844 0
0.00330297 -0.00252184 0
0.00501441 -0.000486391 0
0.00547144 0.00132651 0
0.00483755 0.00266518 0
0.00344573 0.00330661 0
0.00177301 0.002997 0
0.00046762 0.00145952 0
-0.000270022 0.000313427 0
-0.00128782 0.00175908 0
-0.00316245 0.00326405 0
-0.00570878 0.00455316 0
-0.00877807 0.00559621 0
-0.012262 0.00643787 0
-0.0160722 0.00710955 0
-0.0201168 0.00760208 0
-0.0242853 0.00787104 0
-0.0284425 0.00785327 0
-0.0324295 0.00748384 0
-0.036071 0.00670955 0
-0.0391848 0.00549922 0
-0.0415933 0.00385145 0
-0.0431347 0.00180069 0
-0.0436738 -0.000577772 0
-0.0431097 -0.00316581 0
-0.0413812 -0.00581508 0
-0.0384794 -0.00833487 0
-0.0344644 -0.0104994 0
-0.0294805 -0.0120667 0
-0.0237659 -0.0128073 0
-0.0176542 -0.012543 0
-0.0115639 -0.0111944 0
-0.00596866 -0.00883157 0
-0.0013425 -0.00571286 0
0.00192594 -0.00227526 0
0.00364849 0.000935804 0
0.00391945 0.00341882 0
0.00308447 0.00477977 0
0.00168204 0.00459898 0
0.000458913 0.00238605 0
-0.000464058 0.00104751 0
-0.00207516 0.00365391 0
-0.00484244 0.00601112 0
-0.00841708 0.00792707 0
-0.012578 0.00945253 0
-0.0171895 0.010677 0
-0.0221491 0.0116402 0
-0.0273506 0.0123175 0
-0.0326656 0.0126392 0
-0.0379395 0.0125163 0
-0.0429958 0.0118642 0
-0.0476443 0.0106192 0
-0.0516907 0.00874981 0
-0.0549464 0.00626494 0
-0.0572365 0.00321879 0
-0.0584073 -0.000285956 0
-0.0583306 -0.00409848 0
-0.056907 -0.0080345 0
-0.0540792 -0.0118451 0
-0.049857 -0.0152263 0
-0.0443392 -0.0178415 0
-0.0377303 -0.019356 0
-0.0303528 -0.0194835 0
-0.0226482 -0.0180488 0
-0.0151594 -0.0150612 0
-0.00848339 -0.0107853 0
-0.00318154 -0.00577311 0
0.000347018 -0.000817462 0
0.00202315 0.003225 0
0.00215356 0.00567815 0
0.00133473 0.00592187 0
0.000388029 0.00323299 0
-0.000679248 0.00219081 0
-0.0029362 0.00637866 0
-0.00665598 0.00977341 0
-0.0113106 0.0123941 0
-0.0166056 0.0144414 0
-0.0223809 0.0160749 0
-0.0285253 0.0173462 0
-0.0349249 0.0182126 0
-0.0414422 0.0185765 0
-0.0479133 0.0183239 0
-0.0541522 0.0173519 0
-0.0599596 0.0155874 0
-0.0651297 0.0129982 0
-0.0694577 0.00960028 0
-0.072746 0.00546185 0
-0.0748091 0.000704853 0
-0.0754793 -0.0044958 0
-0.0746098 -0.00993026 0
-0.0720874 -0.0152996 0
-0.0678602 -0.020221 0
-0.0619678 -0.024257 0
-0.0545641 -0.026953 0
-0.0459392 -0.0278889 0
-0.0365345 -0.0267528 0
-0.0269438 -0.0234367 0
-0.0178829 -0.0181467 0
-0.0101052 -0.0114912 0
-0.0042512 -0.00448203 0
-0.000656585 0.00161883 0
0.000835126 0.0056622 0
0.000847119 0.00674466 0
0.0002915 0.00391252 0
-0.000907721 0.00377778 0
-0.00383648 0.00997741 0
-0.00852805 0.014586 0
-0.0142726 0.0179806 0
-0.020708 0.0205853 0
-0.0276565 0.0226549 0
-0.035003 0.0242573 0
-0.0426323 0.0253303 0
-0.0504042 0.025748 0
-0.0581512 0.0253703 0
-0.0656819 0.0240751 0
-0.0727873 0.021777 0
-0.0792466 0.0184379 0
-0.0848315 0.0140735 0
-0.0893124 0.00875769 0
-0.0924644 0.00262417 0
-0.0940762 -0.00413315 0
-0.0939558 -0.0112827 0
-0.0919363 -0.0184892 0
-0.0879012 -0.0252937 0
-0.0818214 -0.0311565 0
-0.0737831 -0.0354954 0
-0.0640176 -0.0377369 0
-0.0529326 -0.0373945 0
-0.0411366 -0.0341817 0
-0.0294374 -0.0281619 0
-0.0187838 -0.0199073 0
-0.0101107 -0.0105931 0
-0.00408164 -0.00189384 0
-0.000802948 0.00440447 0
0.000279661 0.00690779 0
0.000190327 0.00439435 0
-0.00113854 0.00582404 0
-0.00473344 0.0144548 0
-0.0103727 0.0204395 0
-0.0171728 0.0246717 0
-0.0247139 0.0278708 0
-0.0328064 0.0304103 0
-0.0413364 0.0323783 0
-0.0501906 0.0336928 0
-0.0592304 0.0341974 0
-0.0682867 0.0337242 0
-0.077163 0.0321281 0
-0.0856391 0.0293056 0
-0.0934754 0.0252048 0
-0.100417 0.0198331 0
-0.106201 0.0132625 0
-0.110563 0.00563332 0
-0.113249 -0.00284391 0
-0.114032 -0.011909 0
-0.112703 -0.0212117 0
-0.109083 -0.0302261 0
-0.10307 -0.0383173 0
-0.0946648 -0.0447781 0
-0.0840114 -0.0488732 0
-0.0714408 -0.0499138 0
-0.0575225 -0.0473767 0
-0.0431024 -0.0410862 0
-0.0292904 -0.0314487 0
-0.0173365 -0.0196786 0
-0.00833604 -0.00783781 0
-0.00281036 0.00154407 0
-0.000378876 0.00625409 0
8.69123e-05 0.00467158 0
-0.00135737 0.00831995 0
-0.00557509 0.0197715 0
-0.0120904 0.0272774 0
-0.0198634 0.0324068 0
-0.0284268 0.0362403 0
-0.0375839 0.0392902 0
-0.0472237 0.0416681 0
-0.0572373 0.0432708 0
-0.0674881 0.0439099 0
-0.0778062 0.0433861 0
-0.0879896 0.041526 0
-0.0978067 0.038201 0
-0.107 0.0333387 0
-0.11529 0.0269315 0
-0.122387 0.0190447 0
-0.127996 0.00982226 0
-0.131833 -0.000509532 0
-0.133641 -0.0116518 0
-0.133181 -0.0232581 0
-0.130227 -0.0347542 0
-0.124601 -0.0454278 0
-0.116212 -0.0544621 0
-0.105086 -0.0609683 0
-0.0914326 -0.064043 0
-0.0757165 -0.0628818 0
-0.0587428 -0.0569748 0
-0.0417075 -0.0464075 0
-0.0261436 -0.0322375 0
-0.0136483 -0.0167747 0
-0.00532353 -0.00336949 0
-0.00117446 0.00458709 0
-3.00778e-05 0.00472842 0
-0.00154728 0.0112246 0
-0.00630258 0.0258399 0
-0.0135718 0.0349936 0
-0.0221833 0.0410751 0
-0.0316315 0.0455836 0
-0.0417135 0.0491861 0
-0.0523216 0.0520202 0
-0.0633503 0.0539609 0
-0.0746654 0.0547856 0
-0.0860964 0.0542596 0
-0.0974368 0.0521764 0
-0.108447 0.0483775 0
-0.118857 0.0427649 0
-0.128373 0.0353126 0
-0.13669 0.0260769 0
-0.143495 0.0152044 0
-0.148487 0.00293726 0
-0.15139 -0.0103875 0
-0.151949 -0.0244231 0
-0.149913 -0.0385804 0
-0.145042 -0.0520983 0
-0.137142 -0.0640811 0
-0.126105 -0.0735119 0
-0.111973 -0.0792843 0
-0.0950405 -0.0802896 0
-0.0759756 -0.0756056 0
-0.0559499 -0.0648378 0
-0.0366846 -0.0486365 0
-0.0202709 -0.0292847 0
-0.00856251 -0.0108926 0
-0.00222215 0.00162075 0
-0.00018506 0.00451328 0
-0.0016905 0.0144624 0
-0.0068554 0.0325223 0
-0.0147061 0.0434311 0
-0.0239705 0.0505135 0
-0.0341097 0.0557326 0
-0.0449138 0.0599233 0
-0.0562752 0.0632525 0
-0.0680908 0.0655729 0
-0.080228 0.0666259 0
-0.0925171 0.0661393 0
-0.104751 0.0638706 0
-0.116686 0.059629 0
-0.128053 0.0532896 0
-0.138556 0.0448077 0
-0.147888 0.0342305 0
-0.155739 0.0217071 0
-0.161805 0.00749324 0
-0.165797 -0.0080486 0
-0.16747 -0.0245303 0
-0.166575 -0.0414038 0
-0.162827 -0.0578952 0
-0.155937 -0.0730735 0
-0.145653 -0.0858407 0
-0.131816 -0.0949235 0
-0.114482 -0.0989172 0
-0.0940859 -0.0964393 0
-0.0716408 -0.0864748 0
-0.0489097 -0.0689959 0
-0.0283821 -0.0458665 0
-0.0127495 -0.0216518 0
-0.00363912 -0.00307071 0
-0.000399846 0.00392837 0
-0.00177053 0.0179234 0
-0.00717816 0.0396338 0
-0.0153929 0.0523851 0
-0.0250774 0.0605083 0
-0.0356628 0.0664623 0
-0.0469271 0.071262 0
-0.0587593 0.0751074 0
-0.0710562 0.0778304 0
-0.083687 0.0791364 0
-0.0964845 0.0787153 0
-0.109245 0.0762887 0
-0.121732 0.071634 0
-0.133683 0.0646019 0
-0.144816 0.0551314 0
-0.154841 0.0432635 0
-0.163466 0.0291505 0
-0.17041 0.0130603 0
-0.175407 -0.00462697 0
-0.178228 -0.023458 0
-0.178639 -0.0429593 0
-0.17634 -0.0623872 0
-0.170977 -0.0808345 0
-0.162152 -0.097189 0
-0.149488 -0.110076 0
-0.13275 -0.117837 0
-0.112041 -0.118624 0
-0.0880787 -0.110698 0
-0.0624843 -0.0930981 0
-0.0379681 -0.0668081 0
-0.0180211 -0.0362898 0
-0.00553499 -0.0100292 0
-0.00070795 0.00282058 0
-0.00177461 0.0214686 0
-0.00722777 0.0469494 0
-0.0155538 0.0616102 0
-0.025389 0.0708029 0
-0.0361352 0.0774993 0
-0.0475521 0.0829062 0
-0.05952 0.0872633 0
-0.0719336 0.0903851 0
-0.0846645 0.0919434 0
-0.0975507 0.0915921 0
-0.110398 0.0890195 0
-0.122983 0.0839757 0
-0.135063 0.0762913 0
-0.146383 0.065895 0
-0.156686 0.0528268 0
-0.16572 0.0372469 0
-0.173249 0.0194372 0
-0.179054 -0.000202917 0
-0.18294 -0.0211742 0
-0.184712 -0.0430603 0
-0.184098 -0.0651991 0
-0.180706 -0.086778 0
-0.174019 -0.106758 0
-0.163436 -0.123754 0
-0.148395 -0.135939 0
-0.128588 -0.141037 0
-0.104294 -0.136541 0
-0.0768003 -0.120344 0
-0.0487993 -0.0920797 0
-0.0244173 -0.0553472 0
-0.00799717 -0.0198781 0
-0.00113372 0.00097891 0
-0.00169573 0.0249389 0
-0.00697977 0.0542163 0
-0.0151428 0.0708324 0
-0.024837 0.0811101 0
-0.0354347 0.0885361 0
-0.0466695 0.0945212 0
-0.0584081 0.0993547 0
-0.0705414 0.102841 0
-0.082944 0.104621 0
-0.0954629 0.104319 0
-0.107918 0.101595 0
-0.120108 0.0961757 0
-0.131817 0.087881 0
-0.142829 0.076637 0
-0.152933 0.0624915 0
-0.161937 0.0456201 0
-0.169668 0.026324 0
-0.175974 0.00502086 0
-0.180719 -0.0177663 0
-0.183777 -0.0416381 0
-0.184947 -0.0660657 0
-0.183843 -0.0904068 0
-0.179865 -0.113795 0
-0.172208 -0.134956 0
-0.159974 -0.152013 0
-0.142383 -0.162361 0
-0.119156 -0.162738 0
-0.0910422 -0.149755 0
-0.0604462 -0.121265 0
-0.0318554 -0.0791344 0
-0.0110797 -0.0332867 0
-0.00170041 -0.00185521 0
-0.00153416 0.0281688 0
-0.0064328 0.0611691 0
-0.0141544 0.0797643 0
-0.0234108 0.0911288 0
-0.0335458 0.09925 0
-0.0442593 0.105756 0
-0.0553995 0.110999 0
-0.0668524 0.114783 0
-0.0784975 0.116727 0
-0.0901945 0.116429 0
-0.101783 0.113528 0
-0.113088 0.107737 0
-0.123929 0.0988707 0
-0.134133 0.0868636 0
-0.143547 0.0717824 0
-0.152044 0.0538297 0
-0.159533 0.033335 0
-0.165953 0.0107354 0
-0.171242 -0.0134461 0
-0.175376 -0.0387668 0
-0.178263 -0.06488 0
-0.179576 -0.0913829 0
-0.178687 -0.117686 0
-0.174641 -0.142766 0
-0.166221 -0.164858 0
-0.152152 -0.181176 0
-0.131497 -0.187804 0
-0.10428 -0.18002 0
-0.07233 -0.153547 0
-0.0401369 -0.107636 0
-0.0147965 -0.0509008 0
-0.00243064 -0.00598626 0
-0.00129808 0.031001 0
-0.00561064 0.067548 0
-0.0126259 0.0881221 0
-0.021161 0.100563 0
-0.030534 0.109324 0
-0.0404049 0.116266 0
-0.0505988 0.121823 0
-0.0609966 0.125809 0
-0.0714857 0.127834 0
-0.081943 0.127476 0
-0.0922329 0.124359 0
-0.102213 0.11819 0
-0.111741 0.108787 0
-0.12069 0.0961008 0
-0.128961 0.080229 0
-0.136496 0.0614154 0
-0.14329 0.0400333 0
-0.149385 0.0165511 0
-0.154844 -0.00851267 0
-0.159746 -0.0346648 0
-0.164111 -0.0617295 0
-0.167737 -0.0895945 0
-0.170052 -0.118049 0
-0.170033 -0.146469 0
-0.166211 -0.173397 0
-0.156832 -0.196084 0
-0.140241 -0.210141 0
-0.115575 -0.209566 0
-0.083794 -0.187732 0
-0.0489808 -0.140458 0
-0.0191485 -0.0732519 0
-0.00336632 -0.0117832 0
-0.00100324 0.0333023 0
-0.00456161 0.0731176 0
-0.0106375 0.0956437 0
-0.0181983 0.109137 0
-0.0265429 0.118467 0
-0.0352867 0.125738 0
-0.0442284 0.131487 0
-0.0532445 0.135559 0
-0.0622344 0.137563 0
-0.0710982 0.137069 0
-0.0797324 0.133691 0
-0.0880325 0.127138 0
-0.0959003 0.117235 0
-0.103255 0.103957 0
-0.110049 0.0874381 0
-0.116285 0.0679774 0
-0.12203 0.0460108 0
-0.127423 0.0220608 0
-0.132652 -0.0033343 0
-0.137906 -0.0296864 0
-0.143337 -0.0569116 0
-0.148917 -0.0852065 0
-0.154225 -0.114814 0
-0.158289 -0.145659 0
-0.159503 -0.176814 0
-0.155706 -0.205844 0
-0.144521 -0.228157 0
-0.124072 -0.236665 0
-0.0941768 -0.222309 0
-0.0580624 -0.176809 0
-0.0241368 -0.100659 0
-0.00457265 -0.0197222 0
-0.000671829 0.0349774 0
-0.00335587 0.077685 0
-0.00830812 0.102104 0
-0.0146871 0.116616 0
-0.0217837 0.126429 0
-0.0291668 0.133902 0
-0.0366066 0.139704 0
-0.0439769 0.143729 0
-0.0511937 0.1456 0
-0.0581884 0.14489 0
-0.0648981 0.141214 0
-0.0712653 0.134283 0
-0.0772423 0.123935 0
-0.0827997 0.110169 0
-0.0879382 0.0931586 0
-0.0927062 0.0732608 0
-0.0972192 0.0509857 0
-0.101674 0.0269335 0
-0.106344 0.00169153 0
-0.111526 -0.0242754 0
-0.117509 -0.0509086 0
-0.124466 -0.0786731 0
-0.132217 -0.108288 0
-0.139993 -0.140345 0
-0.146228 -0.17468 0
-0.148498 -0.209505 0
-0.143768 -0.240411 0
-0.129083 -0.259546 0
-0.102874 -0.255532 0
-0.067051 -0.215523 0
-0.0297692 -0.133152 0
-0.00613376 -0.0304286 0
-0.000330862 0.0359801 0
-0.00208137 0.0811169 0
-0.00578961 0.107333 0
-0.0108372 0.122814 0
-0.0165225 0.133013 0
-0.02237 0.140549 0
-0.0281209 0.146248 0
-0.0336484 0.150082 0
-0.0388912 0.151707 0
-0.0438194 0.150707 0
-0.0484203 0.146708 0
-0.0526938 0.139429 0
-0.0566528 0.128724 0
-0.0603268 0.114611 0
-0.0637682 0.0972964 0
-0.0670636 0.0771863 0
-0.0703494 0.0548591 0
-0.0738326 0.0309982 0
-0.0778042 0.00626824 0
-0.0826209 -0.0188532 0
-0.0886753 -0.0442934 0
-0.0963258 -0.0706815 0
-0.105702 -0.099152 0
-0.116399 -0.131008 0
-0.12712 -0.167061 0
-0.13542 -0.206553 0
-0.137764 -0.245748 0
-0.130132 -0.276525 0
-0.109378 -0.285516 0
-0.0756346 -0.255106 0
-0.0360547 -0.170431 0
-0.00813911 -0.0447015 0
-1.11664e-05 0.0363221 0
-0.000840454 0.0833546 0
-0.00326114 0.111224 0
-0.00689499 0.127604 0
-0.0110667 0.13808 0
-0.0152634 0.145526 0
-0.0192001 0.150958 0
-0.0227523 0.154452 0
-0.025887 0.155715 0
-0.0286201 0.15436 0
-0.0309971 0.150032 0
-0.0330839 0.142465 0
-0.0349636 0.131527 0
-0.0367347 0.117253 0
-0.0385103 0.0998713 0
-0.0404196 0.0798162 0
-0.0426132 0.0577087 0
-0.0452755 0.0342941 0
-0.0486484 0.0103169 0
-0.0530572 -0.0136763 0
-0.058908 -0.0375652 0
-0.0666698 -0.0619974 0
-0.0767699 -0.0883593 0
-0.0892865 -0.118588 0
-0.103459 -0.154588 0
-0.117159 -0.197027 0
-0.126642 -0.243447 0
-0.12696 -0.286141 0
-0.11328 -0.310334 0
-0.0835196 -0.293792 0
-0.0429881 -0.211857 0
-0.0106694 -0.0635099 0
0.000248205 0.0360851 0
0.000245727 0.0844234 0
-0.000927356 0.113749 0
-0.00313771 0.130924 0
-0.00575314 0.141548 0
-0.0082385 0.14874 0
-0.0102893 0.153731 0
-0.0117888 0.15673 0
-0.0127371 0.157519 0
-0.0132015 0.155753 0
-0.0132902 0.151105 0
-0.01314 0.143329 0
-0.0129094 0.132312 0
-0.0127724 0.118102 0
-0.0129122 0.100938 0
-0.0135137 0.0812607 0
-0.014756 0.0597001 0
-0.0168089 0.0370179 0
-0.0198417 0.0139987 0
-0.0240604 -0.00873044 0
-0.029757 -0.0309636 0
-0.0373684 -0.0532257 0
-0.0474893 -0.0769099 0
-0.0606734 -0.104336 0
-0.0769092 -0.138431 0
-0.094798 -0.181596 0
-0.110846 -0.233346 0
-0.119487 -0.287283 0
-0.11423 -0.328128 0
-0.0903962 -0.329592 0
-0.0505248 -0.256459 0
-0.0137858 -0.0879651 0
0.000421263 0.0354156 0
0.00104792 0.0844687 0
0.000968642 0.114956 0
0.000126264 0.132769 0
-0.000940946 0.143385 0
-0.00169479 0.150143 0
-0.00182538 0.15451 0
-0.0012332 0.156859 0
4.3126e-05 0.157063 0
0.00188159 0.154835 0
0.00410761 0.149885 0
0.00651142 0.141995 0
0.0088588 0.131069 0
0.0109 0.117167 0
0.0123801 0.100532 0
0.0130524 0.0815954 0
0.0126948 0.0609652 0
0.0111276 0.0393729 0
0.00822608 0.0175779 0
0.00391164 -0.00377652 0
-0.00191823 -0.0243911 0
-0.00951257 -0.0445924 0
-0.0193989 -0.065536 0
-0.0323964 -0.0895287 0
-0.0492546 -0.120145 0
-0.0696808 -0.161567 0
-0.0910502 -0.215957 0
-0.10774 -0.279342 0
-0.111854 -0.337212 0
-0.0958581 -0.360338 0
-0.0585319 -0.30291 0
-0.0175169 -0.119268 0
0.000486826 0.0345075 0
0.00146911 0.0837679 0
0.00219483 0.115011 0
0.00255434 0.133198 0
0.00299155 0.143587 0
0.00398431 0.149702 0
0.0058089 0.153257 0
0.0085287 0.1548 0
0.0120551 0.154318 0
0.0162046 0.151592 0
0.0207345 0.146373 0
0.0253641 0.138474 0
0.0297875 0.127819 0
0.0336859 0.114478 0
0.0367409 0.0986867 0
0.038653 0.0808565 0
0.0391631 0.0615516 0
0.038077 0.0414397 0
0.0352858 0.0212039 0
0.0307731 0.00142464 0
0.0245843 -0.0175736 0
0.0167027 -0.035934 0
0.00686848 -0.0544738 0
-0.00565294 -0.0750719 0
-0.0220486 -0.101348 0
-0.0432141 -0.138773 0
-0.0680561 -0.19254 0
-0.0917629 -0.262362 0
-0.105634 -0.336207 0
-0.0992675 -0.383706 0
-0.0666928 -0.349444 0
-0.0218289 -0.158614 0
0.000403485 0.0336172 0
0.00136404 0.0827153 0
0.00249503 0.114207 0
0.0038082 0.132329 0
0.00566402 0.142162 0
0.00841602 0.147382 0
0.0122428 0.149926 0
0.0171325 0.150522 0
0.0229292 0.149274 0
0.029383 0.146033 0
0.0361855 0.140599 0
0.0429914 0.132812 0
0.0494342 0.122614 0
0.0551395 0.110078 0
0.0597422 0.0954281 0
0.0629069 0.0790383 0
0.064353 0.0614136 0
0.0638794 0.0431373 0
0.0613833 0.0247937 0
0.056862 0.00686885 0
0.0503896 -0.0103567 0
0.0420474 -0.0269271 0
0.0317999 -0.043399 0
0.0193409 -0.0611663 0
0.00376759 -0.0832843 0
-0.0166175 -0.115286 0
-0.0426911 -0.165112 0
-0.0715407 -0.237234 0
-0.0947712 -0.324234 0
-0.0995617 -0.397255 0
-0.0743414 -0.393689 0
-0.0265654 -0.207008 0
9.25033e-05 0.0331212 0
0.000497663 0.0818456 0
0.00151889 0.112924 0
0.00349012 0.130327 0
0.00667697 0.139121 0
0.0112251 0.143123 0
0.0171338 0.14445 0
0.0242626 0.143979 0
0.0323644 0.141918 0
0.0411185 0.138182 0
0.0501569 0.13261 0
0.0590824 0.12507 0
0.0674835 0.115513 0
0.074949 0.104009 0
0.0810862 0.0907577 0
0.0855428 0.0760874 0
0.0880309 0.0604303 0
0.088349 0.044276 0
0.0863957 0.0281046 0
0.0821655 0.0123094 0
0.0757249 -0.00288434 0
0.067175 -0.0175073 0
0.0565788 -0.0319751 0
0.043841 -0.0473934 0
0.0285051 -0.0661479 0
0.00941344 -0.0929451 0
-0.015669 -0.136296 0
-0.0469684 -0.205901 0
-0.0780815 -0.301224 0
-0.0950095 -0.398547 0
-0.0801987 -0.432428 0
-0.0313351 -0.264908 0
-0.00059385 0.0336226 0
-0.00153022 0.0818755 0
-0.00123799 0.111581 0
0.001126 0.127335 0
0.00562289 0.134429 0
0.0120754 0.136814 0
0.0202069 0.136718 0
0.0296887 0.1351 0
0.0401582 0.132226 0
0.0512231 0.128055 0
0.0624671 0.122454 0
0.0734585 0.115308 0
0.0837609 0.106571 0
0.0929471 0.0962992 0
0.100617 0.0846602 0
0.106419 0.0719266 0
0.11007 0.0584521 0
0.111375 0.0446307 0
0.110236 0.0308425 0
0.106645 0.0173928 0
0.100667 0.00445077 0
0.0924033 -0.00802879 0
0.0819403 -0.0203944 0
0.0692683 -0.0335645 0
0.0541363 -0.0495089 0
0.0358092 -0.0721653 0
0.0127026 -0.108887 0
-0.0178225 -0.171485 0
-0.0539541 -0.268394 0
-0.0829469 -0.385456 0
-0.0819789 -0.461298 0
-0.0353186 -0.331562 0
-0.00189626 0.0361127 0
-0.00531264 0.0837381 0
-0.00646125 0.110574 0
-0.00384366 0.12336 0
0.00214056 0.127924 0
0.010758 0.12825 0
0.0213532 0.126556 0
0.0333644 0.12377 0
0.0463033 0.120148 0
0.059715 0.115656 0
0.0731538 0.11017 0
0.086176 0.103579 0
0.0983439 0.0958303 0
0.109237 0.0869607 0
0.118468 0.0770974 0
0.125704 0.0664523 0
0.13068 0.0552991 0
0.133219 0.0439392 0
0.133234 0.0326585 0
0.130723 0.0216788 0
0.125758 0.0111081 0
0.118455 0.000880668 0
0.108923 -0.00930923 0
0.0971702 -0.020225 0
0.0829948 -0.033541 0
0.0658247 -0.052636 0
0.0444078 -0.0838926 0
0.0164954 -0.138042 0
-0.0203864 -0.228824 0
-0.0595635 -0.356856 0
-0.0758388 -0.474591 0
-0.0369441 -0.403825 0
-0.00426976 0.0422787 0
-0.011767 0.0884857 0
-0.0148655 0.110074 0
-0.0117305 0.118108 0
-0.00372816 0.119189 0
0.00757643 0.117062 0
0.0210369 0.113688 0
0.0358526 0.109811 0
0.0514313 0.105589 0
0.0672852 0.100949 0
0.0829694 0.0957543 0
0.0980571 0.0898849 0
0.112136 0.083277 0
0.124818 0.0759392 0
0.135751 0.0679548 0
0.144638 0.0594726 0
0.151252 0.050688 0
0.155448 0.0418149 0
0.157165 0.0330519 0
0.156416 0.0245442 0
0.153282 0.0163421 0
0.14788 0.00835176 0
0.140348 0.000283561 0
0.130741 -0.00845837 0
0.118841 -0.0192321 0
0.104053 -0.0349868 0
0.0851905 -0.0612622 0
0.0600047 -0.107574 0
0.0252046 -0.18761 0
-0.0198487 -0.31384 0
-0.0556835 -0.465497 0
-0.0333642 -0.474133 0
-0.00837387 0.0549223 0
-0.0217803 0.0967457 0
-0.0262769 0.109409 0
-0.021252 0.110613 0
-0.00992405 0.107354 0
0.00508011 0.102588 0
0.0221331 0.0976478 0
0.0402655 0.0929027 0
0.0588578 0.0883261 0
0.0774483 0.0837676 0
0.0956388 0.0790611 0
0.113057 0.074072 0
0.129349 0.0687189 0
0.144184 0.0629804 0
0.157271 0.056894 0
0.168371 0.050547 0
0.177309 0.0440604 0
0.183987 0.0375685 0
0.188376 0.0311928 0
0.190513 0.0250144 0
0.190479 0.0190404 0
0.188371 0.0131629 0
0.184274 0.0071025 0
0.178248 0.000355444 0
0.170148 -0.0080459 0