# vtk DataFile Version 2.0
Lid-driven cavity
ASCII
DATASET STRUCTURED_POINTS
DIMENSIONS 32 32 1
ORIGIN 0.015625 0.015625 0
SPACING 0.03125 0.03125 1
POINT_DATA 1024
SCALARS pressure double 1
LOOKUP_TABLE default
0.655436
0.650234
0.650857
0.660473
0.679888
0.709033
0.747605
0.795287
0.851783
0.91679
0.98996
1.07086
1.15893
1.25348
1.35361
1.45824
1.56607
1.67564
1.78537
1.89343
1.99783
2.09649
2.18742
2.26876
2.33893
2.39672
2.44138
2.47271
2.49113
2.4979
2.49557
2.489
0.660638
0.655358
0.657588
0.668508
0.6886
0.717917
0.756326
0.803629
0.859597
0.923958
0.996377
1.07643
1.16355
1.25706
1.35606
1.45949
1.56606
1.67429
1.78268
1.88942
1.99252
2.08993
2.17968
2.25994
2.32919
2.3863
2.43061
2.46208
2.48127
2.48952
2.48897
2.48242
0.659649
0.652564
0.654856
0.666321
0.686877
0.716431
0.754868
0.802048
0.857796
0.921886
0.994017
1.07379
1.16069
1.25403
1.35297
1.45644
1.56318
1.67169
1.78049
1.88772
1.99134
2.08924
2.17939
2.2599
2.32923
2.38626
2.43041
2.4617
2.4808
2.48897
2.48794
2.47944
0.648223
0.639454
0.641329
0.65293
0.673764
0.703565
0.74218
0.789487
0.845353
0.909598
0.981968
1.06211
1.14956
1.24367
1.34363
1.44843
1.55679
1.6672
1.77813
1.8876
1.99345
2.09346
2.18544
2.26739
2.33767
2.39513
2.43925
2.47015
2.48858
2.49586
2.49357
2.48321
0.624242
0.614225
0.615652
0.627255
0.648297
0.678393
0.71735
0.765055
0.82141
0.886281
0.95947
1.04068
1.1295
1.22537
1.3275
1.43493
1.54638
1.66034
1.77509
1.88854
1.99834
2.10205
2.19725
2.28176
2.35377
2.4121
2.45628
2.48658
2.50396
2.50989
2.50613
2.49435
0.586542
0.575618
0.576697
0.588316
0.6096
0.640095
0.679588
0.727983
0.785215
0.851202
0.925807
1.00881
1.09986
1.19846
1.30392
1.41529
1.53133
1.65048
1.7708
1.89001
2.00552
2.11459
2.21448
2.30269
2.37722
2.4368
2.48105
2.51049
2.52641
2.53066
2.52533
2.51243
0.534346
0.52271
0.523544
0.535249
0.556864
0.587899
0.62814
0.677514
0.736
0.803574
0.880167
0.965637
1.05973
1.16202
1.27191
1.38851
1.51062
1.63661
1.7643
1.89117
2.01431
2.13057
2.23675
2.32994
2.40783
2.46902
2.51328
2.5415
2.55549
2.55763
2.55054
2.53661
0.467006
0.454735
0.455394
0.467263
0.489312
0.521029
0.562213
0.612823
0.672888
0.742451
0.821523
0.910053
1.00789
1.11473
1.23006
1.35309
1.48266
1.61714
1.75407
1.89064
2.02353
2.14907
2.26345
2.36314
2.44537
2.50858
2.55271
2.57918
2.59058
2.59006
2.58086
2.56585
0.383878
0.370977
0.371492
0.38358
0.406145
0.438656
0.480927
0.532958
0.594835
0.666674
0.748577
0.840602
0.942718
1.05476
1.17635
1.30682
1.44513
1.58968
1.73775
1.8862
2.03123
2.1685
2.29338
2.4015
2.48939
2.55516
2.59897
2.62301
2.63092
2.62695
2.61512
2.59881
0.284275
0.270701
0.271069
0.283398
0.306518
0.339875
0.383301
0.436835
0.500624
0.574864
0.659756
0.755481
0.862151
0.979765
1.10813
1.24677
1.39481
1.55078
1.71183
1.8744
2.0342
2.18607
2.32434
2.44346
2.53889
2.60817
2.65158
2.67231
2.67555
2.66703
2.65181
2.63381
0.167445
0.153127
0.153314
0.165867
0.189526
0.22371
0.268258
0.323248
0.388884
0.465443
0.55323
0.652559
0.763707
0.886869
1.02208
1.16913
1.32738
1.49566
1.67119
1.84998
2.02726
2.19701
2.35228
2.48595
2.59188
2.66646
2.70986
2.72641
2.72342
2.70884
2.68911
2.66874
0.0325685
0.0174163
0.017362
0.030083
0.0542118
0.0891228
0.134654
0.190907
0.258137
0.336691
0.426977
0.529439
0.64453
0.772668
0.91416
1.06911
1.23725
1.41778
1.60852
1.80499
2.00215
2.19322
2.36989
2.52303
2.64419
2.72769
2.77281
2.78483
2.77381
2.75099
2.72499
2.70099
-0.121246
-0.137337
-0.137712
-0.124908
-0.100425
-0.0649553
-0.0186836
0.0384984
0.106872
0.186835
0.278875
0.383553
0.501486
0.633313
0.779635
0.940914
1.11733
1.30859
1.51356
1.7277
1.94596
2.16126
2.36417
2.54336
2.68723
2.78659
2.83818
2.84718
2.82662
2.79253
2.75734
2.72754
-0.294955
-0.312105
-0.312888
-0.300098
-0.2754
-0.239585
-0.192891
-0.135238
-0.0663544
0.0141667
0.106848
0.212322
0.331325
0.464675
0.61323
0.777807
0.959063
1.15733
1.37242
1.60141
1.83927
2.07971
2.3131
2.52631
2.7039
2.83132
2.89991
2.91194
2.88231
2.8333
2.78419
2.74481
-0.489598
-0.50794
-0.509214
-0.496516
-0.471726
-0.435776
-0.389005
-0.331411
-0.26279
-0.182793
-0.0909355
0.0133969
0.130957
0.262628
0.409401
0.57233
0.752463
0.950752
1.1679
1.4039
1.65479
1.91677
2.18204
2.43713
2.66296
2.83765
2.94297
2.97298
2.94033
2.87364
2.80354
2.7483
-0.706316
-0.726002
-0.727819
-0.715228
-0.69039
-0.654441
-0.607883
-0.550865
-0.483333
-0.405087
-0.315802
-0.21502
-0.102149
0.0235424
0.162918
0.316981
0.486912
0.674156
0.880517
1.10812
1.35771
1.62967
1.92171
2.22326
2.51337
2.76184
2.936
3.01331
2.99533
2.91299
2.81298
2.73196
-0.94641
-0.967614
-0.96996
-0.957362
-0.932353
-0.896358
-0.85013
-0.794062
-0.728355
-0.653088
-0.56825
-0.473743
-0.369397
-0.254979
-0.130184
0.005425
0.152634
0.312988
0.489357
0.68638
0.909942
1.16825
1.47062
1.81472
2.18209
2.53547
2.82374
2.99716
3.03117
2.94712
2.809
2.68723
-1.21144
-1.23436
-1.2371
-1.22416
-1.19857
-1.16215
-1.11603
-1.06096
-0.997524
-0.926238
-0.847594
-0.762106
-0.670371
-0.573114
-0.471209
-0.365542
-0.25657
-0.143405
-0.022479
0.113783
0.277158
0.484259
0.764584
1.13239
1.57936
2.06645
2.5234
2.86304
3.01402
2.96445
2.78663
2.60273
-1.50335
-1.52822
-1.53105
-1.51708
-1.49002
-1.45228
-1.4055
-1.35091
-1.28965
-1.22282
-1.15163
-1.07747
-1.0021
-0.927727
-0.857145
-0.793521
-0.739688
-0.696589
-0.660837
-0.621975
-0.560918
-0.451804
-0.245594
0.106102
0.615242
1.25117
1.93033
2.52277
2.88771
2.94298
2.7407
2.46731
-1.82478
-1.85185
-1.85415
-1.83793
-1.80784
-1.76711
-1.71807
-1.66264
-1.6026
-1.53982
-1.4764
-1.41488
-1.3585
-1.31149
-1.27925
-1.26825
-1.28496
-1.3337
-1.41279
-1.50993
-1.59856
-1.63844
-1.57174
-1.29851
-0.772199
0.000394363
0.937268
1.87148
2.57604
2.85122
2.67194
2.28119
-2.17935
-2.20893
-2.20963
-2.18912
-2.15344
-2.10696
-2.05296
-1.99419
-1.93326
-1.87288
-1.81619
-1.76701
-1.73031
-1.71265
-1.72259
-1.77064
-1.86812
-2.02427
-2.2412
-2.50694
-2.78891
-3.03159
-3.16244
-3.04957
-2.58133
-1.72324
-0.531618
0.81231
1.99629
2.65675
2.60169
2.08003
-2.57231
-2.60471
-2.602
-2.57396
-2.52869
-2.47222
-2.40909
-2.34307
-2.27768
-2.21655
-2.16382
-2.12462
-2.10565
-2.11587
-2.16711
-2.27422
-2.45392
-2.72164
-3.08531
-3.53637
-4.03985
-4.5278
-4.90312
-5.02867
-4.71602
-3.86574
-2.47812
-0.7061
1.08506
2.34335
2.59493
1.97077
-3.01148
-3.04697
-3.03779
-2.99711
-2.9362
-2.86349
-2.78521
-2.70633
-2.6313
-2.56458
-2.5112
-2.4774
-2.47137
-2.50416
-2.59049
-2.74912
-3.00191
-3.37065
-3.87037
-4.499
-5.22436
-5.97263
-6.62587
-7.03154
-6.97453
-6.25669
-4.7927
-2.64836
-0.16814
1.93316
2.78492
2.173
-3.50879
-3.54737
-3.52655
-3.46513
-3.3795
-3.28163
-3.17993
-3.08072
-2.98922
-2.9105
-2.85017
-2.8152
-2.8148
-2.8615
-2.97204
-3.16798
-3.47502
-3.92011
-4.52507
-5.29598
-6.20856
-7.19232
-8.12045
-8.81718
-9.07367
-8.6182
-7.24236
-4.86323
-1.68934
1.50743
3.39253
3.06051
-4.08312
-4.12396
-4.08228
-3.98708
-3.86314
-3.72761
-3.59162
-3.46267
-3.34644
-3.2481
-3.17335
-3.12933
-3.12567
-3.17553
-3.29663
-3.51173
-3.84828
-4.33602
-5.00155
-5.85828
-6.89223
-8.04481
-9.19695
-10.1635
-10.7259
-10.6223
-9.5008
-7.08263
-3.30034
1.22265
4.73871
5.20623
-4.7657
-4.80534
-4.72556
-4.57491
-4.3922
-4.20183
-4.01774
-3.84796
-3.69779
-3.57169
-3.47469
-3.41348
-3.3974
-3.43949
-3.55739
-3.77374
-4.11616
-4.61507
-5.29867
-6.18408
-7.26466
-8.49453
-9.77334
-10.9358
-11.7567
-11.981
-11.2194
-8.95316
-4.71139
1.32866
7.25947
9.44517
-5.61156
-5.63833
-5.48605
-5.24271
-4.97024
-4.70187
-4.453
-4.23031
-4.03698
-3.8755
-3.74928
-3.66378
-3.62747
-3.65262
-3.75593
-3.95926
-4.28928
-4.7754
-5.44502
-6.31567
-7.38388
-8.6122
-9.91686
-11.1591
-12.1404
-12.5906
-12.1309
-10.0821
-5.5052
2.21881
11.5508
16.9847
-6.72635
-6.70171
-6.40333
-6.00142
-5.59259
-5.21636
-4.88425
-4.59708
-4.35298
-4.15063
-3.99063
-3.87648
-3.8152
-3.81762
-3.8994
-4.08123
-4.3883
-4.84805
-5.48573
-6.31714
-7.33871
-8.51647
-9.77594
-10.9958
-12.0043
-12.5494
-12.1921
-10.144
-5.07072
4.58041
18.5065
29.6004
-8.33677
-8.12642
-7.51492
-6.83731
-6.22579
-5.70782
-5.27618
-4.91717
-4.61944
-4.37552
-4.18201
-4.03953
-3.95314
-3.93255
-3.99237
-4.15207
-4.43517
-4.86689
-5.46966
-6.25631
-7.22096
-8.32902
-9.50789
-10.6403
-11.559
-12.0275
-11.5255
-9.05978
-2.79627
9.72527
29.6742
49.9014
-10.9913
-10.089
-8.77938
-7.63426
-6.74611
-6.06524
-5.5337
-5.1097
-4.76678
-4.4894
-4.27005
-4.10693
-4.00347
-3.9682
-4.01471
-4.16132
-4.42991
-4.84338
-5.42108
-6.17213
-7.08682
-8.12695
-9.21593
-10.229
-10.9809
-11.2024
-10.2479
-6.73673
1.79816
19.0607
48.1745
81.2469
-16.0776
-12.4795
-9.71393
-7.92029
-6.75174
-5.95472
-5.37935
-4.94288
-4.60075
-4.32961
-4.11849
-3.9643
-3.86999
-3.84388
-3.89927
-4.05381
-4.32809
-4.74283
-5.31417
-6.04712
-6.92716
-7.91036
-8.91178
-9.79009
-10.3215
-10.1463
-8.38157
-3.14368
8.92106
33.5021
78.9907
144.273
-29.4867
-12.7775
-7.67122
-5.88418
-5.08152
-4.61732
-4.29527
-4.04733
-3.84754
-3.68643
-3.56248
-3.47911
-3.44376
-3.46781
-3.56649
-3.75837
-4.06399
-4.50299
-5.08939
-5.8252
-6.69207
-7.6408
-8.57728
-9.3398
-9.65251
-9.01463
-6.29194
0.743286
16.1975
48.1118
115.542
270.784
VECTORS velocity double
-1.30016e-05 1.30015e-05 0
-0.000157015 0.000131011 0
-0.000508549 0.000220523 0
-0.000999257 0.000270184 0
-0.00156149 0.000292054 0
-0.00215188 0.000298327 0
-0.00274696 0.000296757 0
-0.00333483 0.000291112 0
-0.0039085 0.000282556 0
-0.00446187 0.000270814 0
-0.00498761 0.000254926 0
-0.00547622 0.000233684 0
-0.00591579 0.000205886 0
-0.0062922 0.000170531 0
-0.00658974 0.000127002 0
-0.006792 7.52643e-05 0
-0.00688324 1.59763e-05 0
-0.00684932 -4.99047e-05 0
-0.00667861 -0.000120807 0
-0.00636457 -0.000193228 0
-0.00590859 -0.000262754 0
-0.0053214 -0.000324439 0
-0.00462376 -0.000373193 0
-0.00384628 -0.000404288 0
-0.00302813 -0.000413869 0
-0.00221491 -0.000399352 0
-0.00145597 -0.000359589 0
-0.000801484 -0.000294893 0
-0.000299207 -0.000207384 0
1.12426e-05 -0.000103066 0
0.000113457 8.51942e-07 0
5.63024e-05 5.63022e-05 0
-0.000139933 0.000165936 0
-0.000659005 0.000641162 0
-0.0015888 0.000991699 0
-0.00279377 0.00119469 0
-0.00415459 0.0012906 0
-0.00558618 0.00132175 0
-0.00703456 0.0013168 0
-0.00846638 0.00129076 0
-0.00985881 0.001249 0
-0.0111923 0.00119121 0
-0.0124462 0.00111417 0
-0.0135967 0.00101354 0
-0.014616 0.000884958 0
-0.015473 0.000724846 0
-0.0161339 0.000531153 0
-0.0165646 0.000304093 0
-0.0167328 4.65834e-05 0
-0.0166108 -0.000236431 0
-0.0161793 -0.000536526 0
-0.015431 -0.000839801 0
-0.0143741 -0.00112906 0
-0.0130344 -0.00138507 0
-0.0114566 -0.00158804 0
-0.00970395 -0.00171953 0
-0.00785643 -0.00176429 0
-0.00600675 -0.00171183 0
-0.00425559 -0.00155722 0
-0.00270561 -0.00130173 0
-0.00145355 -0.00095488 0
-0.00057698 -0.000542595 0
-0.000108532 -0.000130282 0
1.17271e-05 0.000124331 0
-0.000256406 0.000562275 0
-0.00110786 0.00161535 0
-0.00251619 0.00235563 0
-0.0042718 0.00279136 0
-0.0062222 0.00300516 0
-0.00826162 0.00307821 0
-0.0103199 0.00306697 0
-0.0123499 0.00300245 0
-0.014317 0.00289682 0
-0.0161907 0.00275056 0
-0.0179399 0.00255795 0
-0.0195304 0.00231073 0
-0.0209238 0.00200051 0
-0.0220781 0.00162054 0
-0.022949 0.00116733 0
-0.0234925 0.000642087 0
-0.0236676 5.18978e-05 0
-0.0234411 -0.000590275 0
-0.0227921 -0.00126314 0
-0.0217165 -0.00193706 0
-0.0202293 -0.00257595 0
-0.0183677 -0.00313947 0
-0.0161931 -0.00358611 0
-0.0137902 -0.003877 0
-0.0112646 -0.00397998 0
-0.00873744 -0.00387294 0
-0.00633865 -0.00354607 0
-0.00419784 -0.00300367 0
-0.00243384 -0.00226898 0
-0.00113959 -0.00139933 0
-0.000358274 -0.00052331 0
-4.86164e-05 8.74417e-05 0
-0.000345123 0.0011638 0
-0.00145752 0.00297768 0
-0.00324438 0.00418848 0
-0.0054255 0.00489523 0
-0.00781823 0.00524441 0
-0.010303 0.0053631 0
-0.0128007 0.00533807 0
-0.0152569 0.00521761 0
-0.0176296 0.00502142 0
-0.0198811 0.00475115 0
-0.0219732 0.00439867 0
-0.0238644 0.00395171 0
-0.0255092 0.00339775 0
-0.0268585 0.00272689 0
-0.0278611 0.00193448 0
-0.0284662 0.00102353 0
-0.0286276 6.9134e-06 0
-0.0283082 -0.00109115 0
-0.0274861 -0.00223332 0
-0.0261576 -0.00337099 0
-0.0243417 -0.0044452 0
-0.0220837 -0.00538979 0
-0.0194578 -0.00613625 0
-0.0165672 -0.00662039 0
-0.0135401 -0.00678936 0
-0.0105227 -0.00660806 0
-0.00766882 -0.00606361 0
-0.00512731 -0.00516845 0
-0.00302869 -0.00396681 0
-0.00147048 -0.00255397 0
-0.000498265 -0.0011222 0
-8.02103e-05 -4.13854e-05 0
-0.000409576 0.0019185 0
-0.00171736 0.00464317 0
-0.00379364 0.00638613 0
-0.00630026 0.00738532 0
-0.00902751 0.00787431 0
-0.0118444 0.0080348 0
-0.0146666 0.00798637 0
-0.017436 0.00779496 0
-0.020107 0.00748772 0
-0.022638 0.00706734 0
-0.0249866 0.00652314 0
-0.0271068 0.00583865 0
-0.0289481 0.00499701 0
-0.0304562 0.00398496 0
-0.0315738 0.0027966 0
-0.0322442 0.00143691 0
-0.0324146 -7.46618e-05 0
-0.0320425 -0.00170104 0
-0.0311 -0.00338799 0
-0.0295794 -0.00506542 0
-0.0274985 -0.00664762 0
-0.0249068 -0.00803711 0
-0.0218896 -0.00913195 0
-0.018569 -0.00983591 0
-0.0150996 -0.0100704 0
-0.0116581 -0.0097858 0
-0.0084284 -0.00896948 0
-0.00558203 -0.00765046 0
-0.00326073 -0.00590473 0
-0.00156061 -0.00387438 0
-0.000516557 -0.00181805 0
-7.92716e-05 -0.000200868 0
-0.000456239 0.00278432 0
-0.00190867 0.00653757 0
-0.00420372 0.00886307 0
-0.00695935 0.0101706 0
-0.00994358 0.0108005 0
-0.0130161 0.010998 0
-0.0160893 0.0109186 0
-0.0191038 0.0106466 0
-0.0220132 0.0102164 0
-0.0247747 0.00963121 0
-0.0273442 0.00887733 0
-0.029673 0.00793349 0
-0.0317072 0.00677767 0
-0.0333872 0.00539236 0
-0.0346497 0.00376933 0
-0.0354298 0.00191463 0
-0.0356653 -0.000146395 0
-0.0353027 -0.00236404 0
-0.0343027 -0.00466742 0
-0.0326465 -0.00696281 0
-0.0303447 -0.00913303 0
-0.027446 -0.0110421 0
-0.0240449 -0.0125452 0
-0.0202842 -0.0135039 0
-0.0163512 -0.0138048 0
-0.0124646 -0.0133794 0
-0.00885156 -0.0122187 0
-0.00571899 -0.0103802 0
-0.00322587 -0.00798942 0
-0.00146294 -0.00525274 0
-0.000438019 -0.00250866 0
-5.27118e-05 -0.000332851 0
-0.000490772 0.00373133 0
-0.00205192 0.00860413 0
-0.00451453 0.0115542 0
-0.00746438 0.013185 0
-0.0106525 0.0139585 0
-0.0139316 0.0141915 0
-0.0172124 0.0140791 0
-0.0204365 0.0137247 0
-0.0235586 0.0131698 0
-0.026537 0.0124178 0
-0.0293276 0.0114509 0
-0.0318808 0.010242 0
-0.0341397 0.00876225 0
-0.0360399 0.00698799 0
-0.0375101 0.00490639 0
-0.0384745 0.00252212 0
-0.0388571 -0.0001358 0
-0.0385875 -0.0030068 0
-0.0376081 -0.00600413 0
-0.0358817 -0.00900865 0
-0.0334041 -0.0118666 0
-0.0302165 -0.0143948 0
-0.0264171 -0.0163931 0
-0.0221685 -0.0176654 0
-0.0176962 -0.0180486 0
-0.0132739 -0.0174445 0
-0.00919276 -0.0158478 0
-0.00571696 -0.0133594 0
-0.00303792 -0.0101823 0
-0.00124143 -0.00661925 0
-0.000291287 -0.00311722 0
-7.66402e-06 -0.000393227 0
-0.000517394 0.00473949 0
-0.00216328 0.010803 0
-0.00475871 0.0144133 0
-0.00786592 0.0163829 0
-0.0112236 0.0173064 0
-0.0146799 0.0175791 0
-0.0181461 0.0174386 0
-0.0215658 0.017009 0
-0.0248972 0.016339 0
-0.0281015 0.0154312 0
-0.0311366 0.0142631 0
-0.0339532 0.0127996 0
-0.0364926 0.0110029 0
-0.038685 0.00883996 0
-0.0404502 0.0062898 0
-0.0416989 0.00335181 0
-0.0423367 5.49165e-05 0
-0.0422714 -0.00353236 0
-0.0414209 -0.00730858 0
-0.0397225 -0.0111289 0
-0.0371471 -0.0147993 0
-0.0337165 -0.0180805 0
-0.0295206 -0.0207028 0
-0.0247323 -0.0223926 0
-0.0196135 -0.0229124 0
-0.0145042 -0.0221123 0
-0.00978495 -0.0199804 0
-0.00581309 -0.0166745 0
-0.00284484 -0.0125146 0
-0.000974082 -0.00795423 0
-0.000107519 -0.00359895 0
4.91271e-05 -0.000351765 0
-0.000538924 0.00579581 0
-0.00225401 0.0131077 0
-0.00495961 0.0174097 0
-0.00820037 0.0197345 0
-0.0117063 0.0208184 0
-0.0153236 0.0211407 0
-0.0189652 0.0209848 0
-0.0225794 0.0204967 0
-0.0261292 0.0197325 0
-0.0295809 0.0186937 0
-0.0328966 0.0173514 0
-0.0360293 0.0156606 0
-0.0389197 0.0135716 0
-0.0414938 0.0110379 0
-0.0436623 0.00802555 0
-0.0453213 0.00452369 0
-0.0463566 0.000556196 0
-0.0466509 -0.00380458 0
-0.0460934 -0.00844444 0
-0.0445883 -0.0131966 0
-0.0420685 -0.0178268 0
-0.0385165 -0.0220355 0
-0.0339898 -0.0254704 0
-0.0286475 -0.0277556 0
-0.022772 -0.0285437 0
-0.0167705 -0.0275918 0
-0.0111405 -0.0248502 0
-0.00638438 -0.0205327 0
-0.00288445 -0.0151246 0
-0.000784016 -0.00931545 0
6.65276e-05 -0.00395483 0
0.00010832 -0.000194318 0
-0.000556987 0.00689172 0
-0.00233086 0.0155007 0
-0.0051316 0.020523 0
-0.00849025 0.0232206 0
-0.0121309 0.0244788 0
-0.0158995 0.0248661 0
-0.019713 0.0247146 0
-0.0235255 0.0241936 0
-0.0273075 0.0233673 0
-0.0310325 0.0222357 0
-0.0346696 0.0207622 0
-0.038177 0.0188899 0
-0.0414979 0.0165536 0
-0.044557 0.0136891 0
-0.0472584 0.0102442 0
-0.0494862 0.00619186 0
-0.0511082 0.00154532 0
-0.0519828 -0.00362482 0
-0.0519681 -0.00919638 0
-0.0509268 -0.014991 0
-0.0487347 -0.0207442 0
-0.045305 -0.0260998 0
-0.0406231 -0.0306147 0
-0.0347929 -0.0337839 0
-0.0280819 -0.0351019 0
-0.020949 -0.0341679 0
-0.0140258 -0.0308273 0
-0.00802238 -0.0253152 0
-0.00354465 -0.0183198 0
-0.000876587 -0.0108887 0
0.000151898 -0.00426058 0
0.000153764 6.7765e-05 0
-0.000572281 0.00802099 0
-0.00239696 0.01797 0
-0.00528167 0.0237392 0
-0.0087465 0.0268279 0
-0.0125114 0.0282771 0
-0.0164238 0.0287489 0
-0.0204059 0.0286274 0
-0.0244199 0.0281073 0
-0.0284456 0.0272613 0
-0.0324673 0.0260884 0
-0.0364645 0.0245437 0
-0.0404053 0.0225565 0
-0.0442405 0.0200432 0
-0.0478994 0.0169176 0
-0.0512866 0.0131043 0
-0.054281 0.00855411 0
-0.0567387 0.00326271 0
-0.0584969 -0.00270949 0
-0.0593805 -0.00924268 0
-0.0591987 -0.0161679 0
-0.0577443 -0.0232139 0
-0.0548199 -0.0299843 0
-0.0502886 -0.0359434 0
-0.044144 -0.04043 0
-0.0365877 -0.0427231 0
-0.0280922 -0.0421752 0
-0.0194168 -0.0384185 0
-0.0115294 -0.0316148 0
-0.00538197 -0.0226453 0
-0.00155768 -0.0130556 0
2.94329e-05 -0.00470932 0
0.000161273 0.000382801 0
-0.000584866 0.00917814 0
-0.00245293 0.0205056 0
-0.00541146 0.0270468 0
-0.00897145 0.0305451 0
-0.0128498 0.0322031 0
-0.0168963 0.0327817 0
-0.0210399 0.0327203 0
-0.0252524 0.0322409 0
-0.029526 0.0314271 0
-0.0338592 0.0302775 0
-0.0382468 0.0287394 0
-0.0426731 0.0267278 0
-0.0471049 0.0241389 0
-0.051486 0.0208619 0
-0.0557326 0.0167938 0
-0.0597308 0.0118572 0
-0.0633339 0.00602036 0
-0.0663595 -0.000683394 0
-0.0685905 -0.00815401 0
-0.069765 -0.0162639 0
-0.0695615 -0.0247758 0
-0.0676284 -0.0332799 0
-0.0636558 -0.0411517 0
-0.0574738 -0.0475483 0
-0.0491614 -0.0514735 0
-0.0391476 -0.0519341 0
-0.0282758 -0.0482068 0
-0.0177763 -0.0402134 0
-0.00905398 -0.0289165 0
-0.00320815 -0.0164545 0
-0.000449411 -0.00565627 0
0.000102214 0.000646288 0
-0.000594466 0.0103575 0
-0.00249797 0.0230978 0
-0.00551948 0.0304346 0
-0.00916218 0.03436 0
-0.0131402 0.0362445 0
-0.0173061 0.0369527 0
-0.0215963 0.0369831 0
-0.0259943 0.0365886 0
-0.0305073 0.035866 0
-0.0351518 0.0348163 0
-0.0399443 0.0333809 0
-0.0448937 0.031462 0
-0.0499936 0.0289364 0
-0.0552161 0.0256679 0
-0.0605041 0.0215224 0
-0.0657636 0.0163863 0
-0.0708535 0.0101843 0
-0.0755704 0.00289525 0
-0.0796338 -0.00543819 0
-0.0826805 -0.0147586 0
-0.08425 -0.024915 0
-0.0838064 -0.0355173 0
-0.0808354 -0.0458579 0
-0.0749674 -0.0548921 0
-0.0661097 -0.0612997 0
-0.0545781 -0.0636532 0
-0.0412146 -0.060723 0
-0.0274474 -0.0519638 0
-0.0151675 -0.0381683 0
-0.00621359 -0.0220025 0
-0.00143503 -0.0076456 0
-4.97735e-05 0.000698729 0
-0.000600764 0.0115527 0
-0.002531 0.0257363 0
-0.00560339 0.03389 0
-0.00931391 0.0382579 0
-0.0133733 0.0403841 0
-0.0176368 0.0412425 0
-0.0220488 0.0413955 0
-0.0266053 0.0411307 0
-0.031331 0.0405625 0
-0.0362651 0.0396984 0
-0.0414522 0.0384785 0
-0.0469352 0.0367967 0
-0.0527476 0.034514 0
-0.0589048 0.03147 0
-0.0653924 0.0274959 0
-0.0721484 0.0224283 0
-0.0790381 0.0161217 0
-0.0858226 0.00845925 0
-0.0921287 -0.000632748 0
-0.0974604 -0.0111857 0
-0.101209 -0.0231698 0
-0.102662 -0.036253 0
-0.101101 -0.0496539 0
-0.0959477 -0.0621179 0
-0.0869004 -0.0719788 0
-0.0740862 -0.07732 0
-0.0582267 -0.0762793 0
-0.0408068 -0.0675947 0
-0.0241232 -0.0515008 0
-0.0108971 -0.0308499 0
-0.00305905 -0.0114148 0
-0.000312683 0.000336272 0
-0.000603715 0.0127572 0
-0.00255181 0.0284102 0
-0.00566221 0.0373989 0
-0.00942328 0.0422205 0
-0.0135411 0.0445987 0
-0.0178722 0.0456226 0
-0.0223685 0.0459237 0
-0.0270394 0.0458299 0
-0.0319288 0.0454783 0
-0.0371017 0.0448896 0
-0.0426368 0.0440095 0
-0.0486195 0.0427313 0
-0.0551345 0.0409067 0
-0.0622537 0.0383537 0
-0.0700163 0.0348623 0
-0.0783965 0.0301981 0
-0.0872603 0.0241055 0
-0.0963179 0.0163176 0
-0.105091 0.0065881 0
-0.112919 -0.00524644 0
-0.119049 -0.0192312 0
-0.122647 -0.0351398 0
-0.122835 -0.0521399 0
-0.118839 -0.0687823 0
-0.110128 -0.0830722 0
-0.0965661 -0.0926029 0
-0.0786122 -0.0948098 0
-0.0576059 -0.0874903 0
-0.0360441 -0.0698505 0
-0.0175079 -0.0442626 0
-0.00545097 -0.0178972 0
-0.000701129 -0.000677539 0
-0.000603862 0.0139648 0
-0.00256226 0.0311091 0
-0.00569866 0.0409468 0
-0.00949189 0.0462269 0
-0.0136407 0.0488589 0
-0.0180013 0.050054 0
-0.0225316 0.050519 0
-0.0272537 0.0506276 0
-0.0322308 0.050547 0
-0.0375553 0.0503184 0
-0.0433425 0.0499031 0
-0.0497253 0.0492032 0
-0.0568449 0.0480695 0
-0.0648349 0.0463002 0
-0.0737895 0.043633 0
-0.0837162 0.0397342 0
-0.0944748 0.0341918 0
-0.105721 0.0265349 0
-0.116877 0.0163005 0
-0.127159 0.0031513 0
-0.135667 -0.0129918 0
-0.141491 -0.0319564 0
-0.143689 -0.0529377 0
-0.141332 -0.0743382 0
-0.13366 -0.0938982 0
-0.120211 -0.108788 0
-0.101039 -0.115751 0
-0.077096 -0.111498 0
-0.0507645 -0.093736 0
-0.0262476 -0.0634303 0
-0.00879518 -0.0282387 0
-0.00125116 -0.00262983 0
-0.00060269 0.0151713 0
-0.00256755 0.0338258 0
-0.0057216 0.0445206 0
-0.0095298 0.0502546 0
-0.0136799 0.0531302 0
-0.0180245 0.0544879 0
-0.0225258 0.0551166 0
-0.0272161 0.0554424 0
-0.032176 0.0556692 0
-0.0375232 0.0558679 0
-0.0434073 0.056025 0
-0.0500055 0.0560622 0
-0.0575117 0.0558365 0
-0.0661144 0.0551259 0
-0.0759551 0.0536027 0
-0.0870681 0.0508043 0
-0.0993108 0.0461229 0
-0.112306 0.0388451 0
-0.125424 0.0282651 0
-0.137815 0.0138594 0
-0.148485 -0.00452222 0
-0.15648 -0.0266072 0
-0.160864 -0.0517052 0
-0.160635 -0.0781564 0
-0.154839 -0.103548 0
-0.142658 -0.124767 0
-0.123617 -0.137985 0
-0.0980293 -0.138795 0
-0.067772 -0.123028 0
-0.0372211 -0.0892065 0
-0.0133518 -0.0437843 0
-0.00204957 -0.00593055 0
-0.000603021 0.016377 0
-0.00257765 0.0365596 0
-0.00574866 0.0481118 0
-0.00955931 0.0542822 0
-0.013681 0.0573743 0
-0.0179595 0.058867 0
-0.0223579 0.0596372 0
-0.0269155 0.0601697 0
-0.0317255 0.0607118 0
-0.0369246 0.0613714 0
-0.042688 0.062169 0
-0.0492251 0.0630535 0
-0.0567672 0.0638935 0
-0.0655405 0.0644448 0
-0.0757192 0.0643031 0
-0.0873612 0.0628589 0
-0.10034 0.0592895 0
-0.114293 0.0526267 0
-0.128608 0.0419176 0
-0.142459 0.0264482 0
-0.15487 0.00596998 0
-0.164836 -0.0191389 0
-0.171446 -0.0481794 0
-0.173765 -0.0795919 0
-0.170715 -0.110959 0
-0.16115 -0.139102 0
-0.143983 -0.159859 0
-0.118652 -0.167841 0
-0.0861047 -0.156787 0
-0.0502841 -0.121818 0
-0.019401 -0.0659252 0
-0.00325638 -0.0112365 0
-0.000609501 0.0175895 0
-0.00260894 0.0393211 0
-0.00580914 0.0517215 0
-0.00961884 0.0582928 0
-0.0136863 0.0615528 0
-0.017847 0.0631276 0
-0.0220613 0.0639893 0
-0.0263716 0.0646856 0
-0.030877 0.0655114 0
-0.0357227 0.0666166 0
-0.0410954 0.0680598 0
-0.0472173 0.0698216 0
-0.054333 0.0717833 0
-0.0626826 0.0736778 0
-0.0724563 0.0750225 0
-0.0837372 0.0750626 0
-0.0964433 0.0727705 0
-0.110286 0.0669408 0
-0.124755 0.0563891 0
-0.139141 0.0402125 0
-0.152569 0.0180453 0
-0.164065 -0.00975264 0
-0.172778 -0.0422421 0
-0.177898 -0.0780907 0
-0.178363 -0.115044 0
-0.172793 -0.150151 0
-0.159476 -0.179294 0
-0.136789 -0.196424 0
-0.104327 -0.193213 0
-0.0649117 -0.160628 0
-0.027148 -0.0957616 0
-0.0050999 -0.0195928 0
-0.00062925 0.0188283 0
-0.00268637 0.0421389 0
-0.00594753 0.0553651 0
-0.00976717 0.0622786 0
-0.0137625 0.0656299 0
-0.0177554 0.0672041 0
-0.0217021 0.0680739 0
-0.0256434 0.0688526 0
-0.0296774 0.0698838 0
-0.0339462 0.0713589 0
-0.0386302 0.0733743 0
-0.0439417 0.0759405 0
-0.0501123 0.0789508 0
-0.0573703 0.0821178 0
-0.0659055 0.0848914 0
-0.0758274 0.0863966 0
-0.0871237 0.085439 0
-0.0996287 0.0806197 0
-0.113006 0.070557 0
-0.126744 0.054168 0
-0.14017 0.0309446 0
-0.152494 0.00116775 0
-0.162937 -0.0340065 0
-0.170821 -0.0733226 0
-0.175301 -0.114867 0
-0.174929 -0.15627 0
-0.167444 -0.193976 0
-0.150057 -0.221816 0
-0.120644 -0.229696 0
-0.0801868 -0.204019 0
-0.0366137 -0.133707 0
-0.00780805 -0.0325007 0
-0.000672847 0.0201304 0
-0.00284642 0.0450675 0
-0.00622787 0.0590791 0
-0.010088 0.0662444 0
-0.0140042 0.0695757 0
-0.0177847 0.0710316 0
-0.0213817 0.07179 0
-0.0248331 0.0725292 0
-0.02823 0.073638 0
-0.0317009 0.0753444 0
-0.035404 0.077776 0
-0.0395208 0.0809671 0
-0.0442465 0.0848205 0
-0.0497753 0.0890348 0
-0.0562809 0.0930152 0
-0.0638948 0.0958085 0
-0.0726844 0.096113 0
-0.0826344 0.0924007 0
-0.0936279 0.0831465 0
-0.105427 0.0671158 0
-0.117656 0.0436517 0
-0.129792 0.0129207 0
-0.141198 -0.0239112 0
-0.151422 -0.0653092 0
-0.159989 -0.109833 0
-0.165604 -0.15606 0
-0.165642 -0.201633 0
-0.156173 -0.241016 0
-0.133099 -0.262983 0
-0.0948785 -0.249411 0
-0.0475333 -0.179234 0
-0.011502 -0.0518108 0
-0.000755997 0.0215592 0
-0.00314185 0.0481981 0
-0.0067399 0.062928 0
-0.0106954 0.0702111 0
-0.0145382 0.0733679 0
-0.0180671 0.0745488 0
-0.0212366 0.0750393 0
-0.024084 0.0755787 0
-0.0266915 0.0765929 0
-0.0291673 0.0783362 0
-0.0316368 0.0809568 0
-0.0342366 0.0845029 0
-0.03711 0.0888836 0
-0.040402 0.0937925 0
-0.0442568 0.098618 0
-0.0488161 0.102379 0
-0.0542176 0.103734 0
-0.0605895 0.101102 0
-0.0680355 0.0928849 0
-0.0766112 0.0777524 0
-0.0862937 0.0549261 0
-0.0969491 0.0244378 0
-0.108305 -0.0126669 0
-0.120146 -0.0544878 0
-0.132351 -0.0998821 0
-0.144077 -0.148671 0
-0.152669 -0.200392 0
-0.153286 -0.251108 0
-0.139793 -0.289457 0
-0.107551 -0.293399 0
-0.0593318 -0.230811 0
-0.0161423 -0.079455 0
-0.000902569 0.0232178 0
-0.00364965 0.0516725 0
-0.00760836 0.0670104 0
-0.0117403 0.0742163 0
-0.0155246 0.0769898 0
-0.0187647 0.0776959 0
-0.021431 0.0777279 0
-0.0235693 0.0778759 0
-0.0252564 0.0785903 0
-0.0265794 0.0801377 0
-0.027627 0.0826724 0
-0.028486 0.0862462 0
-0.0292427 0.0907704 0
-0.0299881 0.0959432 0
-0.0308297 0.101164 0
-0.0319063 0.105469 0
-0.0334043 0.107543 0
-0.0355656 0.105826 0
-0.0386804 0.0987217 0
-0.0430714 0.0848822 0
-0.0490722 0.0634795 0
-0.0569928 0.0344605 0
-0.0670705 -0.00125634 0
-0.0794076 -0.0417204 0
-0.0942207 -0.0856311 0
-0.111294 -0.134122 0
-0.128398 -0.189245 0
-0.140291 -0.249745 0
-0.13907 -0.305535 0
-0.116651 -0.331981 0
-0.071165 -0.285933 0
-0.0215449 -0.117142 0
-0.0011504 0.0252708 0
-0.00448514 0.0557013 0
-0.0090074 0.0714625 0
-0.0134186 0.0783073 0
-0.0171565 0.0804209 0
-0.0200594 0.0804079 0
-0.0221395 0.0797623 0
-0.0234681 0.0793084 0
-0.0241257 0.0795025 0
-0.0241831 0.0806057 0
-0.0236948 0.0827636 0
-0.0227017 0.0860208 0
-0.0212376 0.0902884 0
-0.0193452 0.0952782 0
-0.0170975 0.100422 0
-0.0146232 0.104813 0
-0.0121348 0.107209 0
-0.00995192 0.106138 0
-0.0084985 0.100071 0
-0.00830259 0.0877283 0
-0.00999532 0.0683269 0
-0.0142909 0.0418294 0
-0.0219429 0.00910451 0
-0.0335274 -0.0281597 0
-0.0495173 -0.0683887 0
-0.0702092 -0.113599 0
-0.0943116 -0.168562 0
-0.117088 -0.235759 0
-0.129636 -0.308195 0
-0.120513 -0.360862 0
-0.0819142 -0.341137 0
-0.0273928 -0.16608 0
-0.00156269 0.0279839 0
-0.00582719 0.0605875 0
-0.0111818 0.0764532 0
-0.0159766 0.0825226 0
-0.0196483 0.0836152 0
-0.0221272 0.0825955 0
-0.0235095 0.0810371 0
-0.0239171 0.0797699 0
-0.0234484 0.0792301 0
-0.0221655 0.0796526 0
-0.0200962 0.0811591 0
-0.0172427 0.0837786 0
-0.0135978 0.0874216 0
-0.00916786 0.0918227 0
-0.00400222 0.0964646 0
0.00178103 0.100513 0
0.0079578 0.102844 0
0.0141552 0.102123 0
0.0198256 0.0969617 0
0.0242592 0.0862078 0
0.0266175 0.0691817 0
0.0259688 0.0459188 0
0.0213177 0.0173182 0
0.0115893 -0.0150605 0
-0.00391799 -0.0499908 0
-0.0256593 -0.089564 0
-0.0535828 -0.140571 0
-0.0846966 -0.209859 0
-0.110572 -0.29567 0
-0.11723 -0.375853 0
-0.0900294 -0.391946 0
-0.0331745 -0.226647 0
-0.00225038 0.0317969 0
-0.00796134 0.0667499 0
-0.0144715 0.0821555 0
-0.0197006 0.0868442 0
-0.023191 0.0864557 0
-0.0250661 0.084109 0
-0.0255677 0.0814074 0
-0.0248998 0.0791393 0
-0.0231939 0.077686 0
-0.0205119 0.0772318 0
-0.0168612 0.0778598 0
-0.0122138 0.0795771 0
-0.00653018 0.0822946 0
0.00021384 0.0857758 0
0.00799799 0.0895617 0
0.0167083 0.0929221 0
0.0260862 0.0948797 0
0.035693 0.0942833 0
0.0448786 0.0899458 0
0.052786 0.0808826 0
0.0583928 0.0665419 0
0.060578 0.0470222 0
0.0582355 0.0232085 0
0.0504582 -0.00344514 0
0.0367528 -0.0323934 0
0.0167958 -0.0654631 0
-0.0105206 -0.109432 0
-0.0451417 -0.175264 0
-0.0812418 -0.26829 0
-0.104372 -0.373445 0
-0.0931576 -0.432768 0
-0.0380079 -0.29783 0
-0.0034142 0.0374615 0
-0.0113432 0.0747253 0
-0.0193104 0.0886575 0
-0.0248305 0.0910915 0
-0.0277943 0.0886626 0
-0.0286824 0.0846654 0
-0.0279613 0.0806315 0
-0.0259483 0.0772344 0
-0.0228187 0.0747554 0
-0.0186392 0.0733009 0
-0.0133998 0.0729007 0
-0.00704627 0.0735353 0
0.000492096 0.0751144 0
0.00927268 0.0774314 0
0.0192919 0.0801027 0
0.0304301 0.0825326 0
0.0424023 0.0839191 0
0.0547166 0.0833227 0
0.06665 0.0797874 0
0.077256 0.0725276 0
0.0854196 0.0611266 0
0.0899639 0.0457078 0
0.0898299 0.0269994 0
0.0843044 0.00606675 0
0.0729767 -0.0168722 0
0.0555658 -0.0436164 0
0.0315508 -0.0799473 0
-0.00080668 -0.13777 0
-0.0411089 -0.229382 0
-0.0786248 -0.351707 0
-0.0875193 -0.456826 0
-0.0403018 -0.376139 0
-0.00540987 0.0462856 0
-0.0166342 0.0850545 0
-0.0260508 0.095712 0
-0.0311765 0.0946828 0
-0.0327421 0.0896006 0
-0.0318216 0.0836949 0
-0.0291835 0.0782428 0
-0.025272 0.0736987 0
-0.0203043 0.0701939 0
-0.0143493 0.0677278 0
-0.00737799 0.0662631 0
0.000690696 0.0657506 0
0.00995948 0.0660919 0
0.0205112 0.0671216 0
0.0323568 0.0685477 0
0.0453862 0.06992 0
0.0593141 0.0706318 0
0.0736378 0.0699719 0
0.0876208 0.0672218 0
0.100313 0.0617955 0
0.110618 0.0533894 0
0.117427 0.0420922 0
0.119795 0.0283805 0