# vtk DataFile Version 2.0
Lid-driven cavity
ASCII
DATASET STRUCTURED_POINTS
DIMENSIONS 32 32 1
ORIGIN 0.015625 0.015625 0
SPACING 0.03125 0.03125 1
POINT_DATA 1024
SCALARS pressure double 1
LOOKUP_TABLE default
5.72915
5.71001
5.69284
5.68761
5.69774
5.72373
5.76528
5.82221
5.89465
5.98295
6.08743
6.20812
6.34444
6.49499
6.65734
6.82798
7.00234
7.17477
7.33885
7.48786
7.61561
7.71725
7.7901
7.83401
7.85143
7.84691
7.82647
7.79662
7.76379
7.73423
7.71373
7.70677
5.74831
5.7285
5.71647
5.71627
5.72969
5.75721
5.79889
5.85488
5.9255
6.01116
6.11218
6.22856
6.35975
6.50444
6.66032
6.82408
6.99145
7.15706
7.31481
7.45828
7.58153
7.67998
7.75116
7.79514
7.81443
7.81348
7.79801
7.77409
7.74739
7.72318
7.70607
7.69979
5.76519
5.73839
5.72624
5.72814
5.74353
5.77198
5.81339
5.86801
5.93633
6.01893
6.11633
6.22871
6.35577
6.49646
6.64873
6.80946
6.97451
7.13851
7.29531
7.43826
7.56114
7.65913
7.7296
7.77263
7.79105
7.78972
7.77451
7.75159
7.72635
7.70341
7.68664
7.67915
5.76573
5.73097
5.7166
5.71872
5.73472
5.76316
5.80358
5.85619
5.92164
6.00076
6.09437
6.20301
6.32678
6.46504
6.61617
6.77725
6.94401
7.11096
7.27158
7.41867
7.54533
7.64603
7.71761
7.75993
7.77606
7.77153
7.75313
7.72734
7.69986
7.67504
7.65635
7.64659
5.73978
5.69777
5.68063
5.68194
5.69747
5.72494
5.76353
5.81342
5.87543
5.95065
6.04026
6.14527
6.26629
6.40323
6.55507
6.71929
6.8912
7.06513
7.23409
7.39011
7.52527
7.63288
7.70871
7.752
7.76582
7.75645
7.73192
7.70011
7.66712
7.63767
7.61523
7.60266
5.67923
5.63098
5.61115
5.61114
5.62543
5.65109
5.68707
5.73354
5.79146
5.86222
5.94737
6.04842
6.16655
6.30236
6.45559
6.62459
6.80409
6.98834
7.16993
7.34013
7.48969
7.61019
7.69562
7.74381
7.75728
7.74287
7.71017
7.66902
7.62733
7.59044
7.56226
7.54616
5.57704
5.52347
5.50117
5.49956
5.51204
5.53518
5.56776
5.60997
5.66291
5.72819
5.80771
5.90345
6.0172
6.15035
6.30358
6.47659
6.66434
6.86085
7.05883
7.24892
7.42043
7.5626
7.66659
7.72753
7.74614
7.72907
7.68751
7.63416
7.57991
7.53204
7.49539
7.47429
5.42683
5.36868
5.3441
5.34063
5.35072
5.37054
5.39874
5.43546
5.48184
5.53963
5.61095
5.69817
5.80372
5.92986
6.07846
6.2507
6.44405
6.65205
6.86847
7.08406
7.28679
7.46305
7.59987
7.6877
7.72321
7.71097
7.663
7.59552
7.52421
7.46045
7.41151
7.38275
5.22273
5.16058
5.13374
5.12801
5.13493
5.15031
5.17256
5.2017
5.23874
5.28532
5.34362
5.41626
5.50624
5.61686
5.75146
5.91313
6.10347
6.31725
6.55053
6.7955
7.03955
7.26608
7.45661
7.59433
7.66837
7.67763
7.63239
7.55211
7.45948
7.37346
7.30621
7.26557
4.95945
4.89377
4.8645
4.85576
4.85828
4.8674
4.88122
4.89938
4.92247
4.95174
4.98907
5.03711
5.09939
5.18038
5.28542
5.42032
5.59063
5.79683
6.03879
6.31255
6.60663
6.90199
7.17375
7.39502
7.54275
7.60437
7.58315
7.4991
7.38328
7.26713
7.17308
7.11464
4.63245
4.56363
4.53145
4.51854
4.51476
4.51491
4.51655
4.51862
4.52087
4.52371
4.52831
4.537
4.55369
4.58422
4.63646
4.71996
4.8449
5.01964
5.25177
5.54537
5.89291
6.27472
6.65963
7.00842
7.28066
7.44458
7.48757
7.42324
7.28959
7.13596
7.00421
6.91908
4.23823
4.16658
4.13077
4.11198
4.09927
4.08671
4.071
4.04999
4.02208
3.98623
3.94233
3.89193
3.83908
3.79111
3.75903
3.75726
3.80239
3.9108
4.10097
4.39298
4.78716
5.26662
5.79582
6.32254
6.78466
7.12237
7.29481
7.29654
7.16519
6.97116
6.7884
6.66433
3.77464
3.70049
3.66005
3.63326
3.6083
3.57835
3.53891
3.4862
3.41668
3.32717
3.21558
3.08208
2.93047
2.76956
2.614
2.48427
2.40524
2.40315
2.50546
2.75879
3.17746
3.75252
4.44833
5.20184
5.92741
6.52951
6.92464
7.06943
6.98487
6.75869
6.51055
6.33144
3.2413
3.16498
3.11879
3.08161
3.04071
2.98818
2.9179
2.82399
2.70027
2.54067
2.34033
2.09732
1.81463
1.50233
1.17899
0.87207
0.616523
0.45122
0.413376
0.572853
0.974671
1.62338
2.48964
3.50532
4.56403
5.53086
6.26627
6.66565
6.70633
6.47711
6.15256
5.89748
2.63984
2.56171
2.50873
2.45887
2.39851
2.31839
2.21045
2.06615
1.87607
1.63051
1.32103
0.942759
0.497206
-0.0048296
-0.54093
-1.07611
-1.56405
-1.95119
-2.18404
-2.18509
-1.86016
-1.18367
-0.170468
1.11578
2.55655
3.98107
5.18616
5.98241
6.26667
6.09503
5.69294
5.3355
1.974
1.89451
1.83401
1.76982
1.68734
1.57579
1.42487
1.22296
0.956865
0.612613
0.177457
-0.357213
-0.992225
-1.71677
-2.50514
-3.3149
-4.08775
-4.75369
-5.23922
-5.46337
-5.29014
-4.6553
-3.55098
-2.0245
-0.191846
1.75335
3.54738
4.89916
5.58343
5.57011
5.10788
4.61545
1.24944
1.16912
1.10105
1.02208
0.916549
0.772044
0.575763
0.312761
-0.0343063
-0.484098
-1.05423
-1.75774
-2.59862
-3.56702
-4.6349
-5.75324
-6.85215
-7.8449
-8.63649
-9.13367
-9.18835
-8.68144
-7.5723
-5.87997
-3.69918
-1.2237
1.24018
3.29756
4.56369
4.85251
4.37548
3.71073
0.473195
0.392648
0.317961
0.225599
0.0987734
-0.0767847
-0.31648
-0.638704
-1.06504
-1.619
-2.32333
-3.19594
-4.2447
-5.46173
-6.818
-8.25946
-9.70624
-11.0562
-12.1935
-13.0034
-13.3421
-13.0533
-12.0458
-10.3013
-7.87444
-4.9293
-1.78094
1.0917
3.12368
3.89636
3.4863
2.61155
-0.347189
-0.427338
-0.506379
-0.608213
-0.751074
-0.951314
-1.22704
-1.60005
-2.09602
-2.74314
-3.56919
-4.59702
-5.83884
-7.28964
-8.92093
-10.6757
-12.4669
-14.1794
-15.6796
-16.829
-17.4841
-17.4837
-16.6881
-15.0286
-12.5064
-9.22534
-5.46287
-1.73624
1.21823
2.68221
2.46547
1.35255
-1.20492
-1.28412
-1.3636
-1.46784
-1.61714
-1.83043
-2.12868
-2.53695
-3.08467
-3.8042
-4.72783
-5.88302
-7.28633
-8.93629
-10.8064
-12.8393
-14.9439
-16.9967
-18.8502
-20.3463
-21.3316
-21.6536
-21.1606
-19.7222
-17.2801
-13.8544
-9.63391
-5.10461
-1.12529
1.24902
1.40773
0.0561719
-2.0955
-2.17341
-2.24737
-2.3431
-2.48418
-2.69304
-2.99398
-3.41519
-3.98932
-4.75211
-5.73943
-6.98252
-8.50178
-10.2996
-12.3526
-14.6056
-16.9672
-19.311
-21.4811
-23.3064
-24.6187
-25.2707
-25.1232
-24.0167
-21.8222
-18.4675
-14.0094
-8.81751
-3.77955
-0.272034
0.52036
-1.0121
-3.01869
-3.09527
-3.15516
-3.22669
-3.33899
-3.5198
-3.79754
-4.20361
-4.7732
-5.54438
-6.55525
-7.83947
-9.42029
-11.3035
-13.4698
-15.8681
-18.411
-20.974
-23.4002
-25.5123
-27.13
-28.1018
-28.3001
-27.5845
-25.765
-22.6792
-18.2271
-12.5768
-6.50897
-1.63449
0.163086
-1.38419
-3.98095
-4.05649
-4.09004
-4.11551
-4.17157
-4.29427
-4.51765
-4.87645
-5.40768
-6.15027
-7.143
-8.42061
-10.008
-11.9132
-14.1203
-16.5831
-19.2203
-21.9146
-24.5158
-26.8501
-28.7332
-29.9997
-30.5226
-30.1879
-28.809
-26.134
-21.9066
-16.0224
-8.98906
-2.47624
0.874229
-0.330611
-4.99911
-5.07386
-5.06294
-5.01186
-4.97576
-5.00366
-5.13732
-5.41507
-5.87491
-6.55554
-7.49507
-8.72746
-10.2772
-12.1528
-14.3402
-16.7964
-19.446
-22.1802
-24.8599
-27.3236
-29.3982
-30.9154
-31.7319
-31.7274
-30.7663
-28.5646
-24.7114
-18.7884
-10.849
-2.34527
3.37772
3.20087
-6.10659
-6.17936
-6.0954
-5.92429
-5.74922
-5.63868
-5.64432
-5.80767
-6.16639
-6.75728
-7.61591
-8.77374
-10.2532
-12.0616
-14.1849
-16.5825
-19.1834
-21.8864
-24.5635
-27.0671
-29.24
-30.9253
-31.9772
-32.2532
-31.6095
-29.8215
-26.3884
-20.5447
-11.7115
-0.735956
8.57816
10.6656
-7.36567
-7.42944
-7.22366
-6.8681
-6.49248
-6.19247
-6.03044
-6.04888
-6.28248
-6.7636
-7.52321
-8.58854
-9.97848
-11.6979
-13.7319
-16.0406
-18.5567
-21.1851
-23.8068
-26.2859
-28.4787
-30.2423
-31.4379
-31.9173
-31.5009
-29.9462
-26.7623
-20.9847
-11.176
2.91384
17.5737
24.0576
-8.89444
-8.92278
-8.50447
-7.86432
-7.20629
-6.65861
-6.29078
-6.14013
-6.2333
-6.59474
-7.24848
-8.21594
-9.5114
-11.1365
-13.0744
-15.2857
-17.7054
-20.2432
-22.7869
-25.2087
-27.3732
-29.1454
-30.3942
-30.971
-30.67
-29.1712
-25.9131
-19.7355
-8.67209
9.36745
31.7578
46.1582
-10.9329
-10.835
-10.0202
-8.93239
-7.88273
-7.0247
-6.41922
-6.08588
-6.03507
-6.27884
-6.83191
-7.70868
-8.91816
-10.4582
-12.31
-14.4337
-16.7659
-19.2196
-21.6875
-24.0465
-26.1645
-27.906
-29.1347
-29.7066
-29.3868
-27.7574
-24.047
-16.7382
-3.14835
20.0313
53.1533
80.9548
-14.0208
-13.4783
-11.8647
-10.0556
-8.47343
-7.24704
-6.38837
-5.87604
-5.69357
-5.83587
-6.30639
-7.11181
-8.25568
-9.73207
-11.5198
-13.5783
-15.845
-18.2351
-20.6439
-22.9506
-25.0224
-26.7172
-27.8818
-28.3412
-27.8636
-25.8812
-21.269
-11.9145
6.02333
37.651
85.2203
134.084
-19.5059
-17.322
-13.9995
-11.0348
-8.77615
-7.16414
-6.07578
-5.42016
-5.14469
-5.22359
-5.64814
-6.4172
-7.52898
-8.97387
-10.7284
-12.751
-14.9792
-17.3294
-19.6985
-21.9657
-23.995
-25.6339
-26.7046
-26.9831
-26.1536
-23.5658
-17.464
-4.79747
19.904
64.5728
135.218
212.084
-30.8235
-22.2741
-15.4636
-10.9394
-8.01531
-6.14728
-4.98488
-4.33187
-4.08839
-4.20841
-4.67413
-5.47998
-6.62164
-8.08791
-9.85448
-11.8795
-14.1012
-16.4372
-18.7852
-21.0239
-23.0128
-24.5863
-25.5365
-25.5742
-24.2453
-20.6814
-12.3879
4.87996
38.8086
102.308
214.178
370.869
-61.8241
-22.5933
-10.2792
-5.76185
-3.70324
-2.62877
-2.07749
-1.88551
-1.99408
-2.38767
-3.06897
-4.04593
-5.32322
-6.89578
-8.74378
-10.8291
-13.0932
-15.4566
-17.8191
-20.0599
-22.0348
-23.5666
-24.4187
-24.234
-22.3972
-17.6594
-7.09083
14.4413
56.4419
137.565
302.3
674.096
VECTORS velocity double
4.50275e-05 -4.50276e-05 0
5.38708e-05 3.61842e-05 0
-0.000116891 0.000134578 0
-0.000456898 0.000205428 0
-0.00090998 0.000247653 0
-0.00142898 0.000271352 0
-0.00198541 0.000285073 0
-0.00256324 0.000292753 0
-0.00315042 0.000294429 0
-0.00373265 0.000287803 0
-0.00429004 0.000269586 0
-0.00479604 0.000236412 0
-0.00521797 0.000185525 0
-0.00551889 0.000115392 0
-0.00566064 2.63575e-05 0
-0.00560811 -7.88864e-05 0
-0.00533446 -0.000194763 0
-0.00482707 -0.00031263 0
-0.00409324 -0.000421196 0
-0.00316472 -0.000507333 0
-0.00209962 -0.000557761 0
-0.000980289 -0.00056157 0
9.44744e-05 -0.000513194 0
0.00102285 -0.000415178 0
0.00171654 -0.00027852 0
0.00211624 -0.000121171 0
0.00220233 3.50763e-05 0
0.0019979 0.000169348 0
0.00156346 0.000265095 0
0.000996223 0.000302142 0
0.000441204 0.000252877 0
9.41635e-05 9.41633e-05 0
-4.41031e-05 -4.59522e-05 0
-0.000343136 0.000327298 0
-0.00105676 0.000727847 0
-0.00212401 0.00101942 0
-0.00343605 0.00119877 0
-0.00489715 0.00130034 0
-0.00643892 0.00135427 0
-0.00801247 0.00137493 0
-0.00957577 0.00136272 0
-0.0110835 0.0013095 0
-0.0124818 0.00120356 0
-0.0137066 0.00103327 0
-0.0146858 0.000789786 0
-0.0153432 0.000469367 0
-0.0156048 7.57837e-05 0
-0.0154081 -0.000377586 0
-0.014711 -0.000866777 0
-0.0135009 -0.00135816 0
-0.0118015 -0.00180886 0
-0.00968023 -0.00216946 0
-0.00725134 -0.00238961 0
-0.0046738 -0.00242659 0
-0.00214114 -0.0022556 0
0.000137725 -0.00188001 0
0.00196755 -0.00133721 0
0.00320069 -0.000695318 0
0.00376468 -4.08604e-05 0
0.00367825 0.000536141 0
0.00305087 0.000960129 0
0.00207446 0.00115075 0
0.00102354 0.00101021 0
0.000259542 0.000447869 0
-0.000188747 0.000186898 0
-0.000924091 0.00112882 0
-0.00229798 0.00201383 0
-0.00414493 0.00264764 0
-0.00630251 0.00304017 0
-0.00864236 0.0032599 0
-0.0110705 0.00336463 0
-0.0135143 0.00338195 0
-0.0159082 0.00331286 0
-0.0181833 0.00314222 0
-0.0202626 0.00284845 0
-0.0220603 0.00241084 0
-0.0234838 0.00181497 0
-0.0244397 0.00105734 0
-0.02484 0.000149765 0
-0.0246123 -0.000876014 0
-0.0237091 -0.00196862 0
-0.0221147 -0.00306076 0
-0.0198532 -0.00406715 0
-0.016997 -0.00488863 0
-0.0136743 -0.00542202 0
-0.0100707 -0.00557537 0
-0.00642263 -0.00528753 0
-0.00300056 -0.00454903 0
-7.91058e-05 -0.00341946 0
0.00210592 -0.00203124 0
0.00340746 -0.000570476 0
0.00380233 0.000757322 0
0.00340248 0.00176618 0
0.00244107 0.00228251 0
0.00126088 0.00210956 0
0.000332992 0.0010404 0
-0.000347934 0.000723579 0
-0.0015612 0.00254075 0
-0.0036406 0.00405521 0
-0.00628541 0.00509802 0
-0.00927061 0.00573257 0
-0.0124399 0.00607663 0
-0.0156836 0.00621977 0
-0.0189163 0.0062033 0
-0.0220599 0.00602896 0
-0.0250338 0.00567518 0
-0.0277506 0.00511164 0
-0.0301153 0.00430996 0
-0.0320277 0.00325177 0
-0.0333866 0.00193536 0
-0.0340965 0.000381875 0
-0.034074 -0.0013583 0
-0.0332563 -0.00320726 0
-0.0316069 -0.00506583 0
-0.0291254 -0.00680514 0
-0.0258612 -0.00827102 0
-0.0219266 -0.00929693 0
-0.0175051 -0.0097256 0
-0.0128521 -0.00943832 0
-0.0082832 -0.0083892 0
-0.00414621 -0.00663774 0
-0.000775194 -0.004369 0
0.00157256 -0.001882 0
0.00278737 0.000459166 0
0.00294861 0.00230295 0
0.00230619 0.00334957 0
0.00125331 0.00327558 0
0.000341096 0.00171449 0
-0.000508804 0.00158032 0
-0.00220447 0.00459294 0
-0.00499014 0.00686809 0
-0.00842091 0.00836072 0
-0.0122071 0.00924123 0
-0.0161687 0.00969888 0
-0.0201892 0.00986169 0
-0.0241812 0.00978605 0
-0.0280663 0.00947489 0
-0.031764 0.00890089 0
-0.0351866 0.00802537 0
-0.0382377 0.00681209 0
-0.0408133 0.0052375 0
-0.0428038 0.00329915 0
-0.0440992 0.00102333 0
-0.0445937 -0.00152773 0
-0.044191 -0.00425829 0
-0.0428118 -0.00704337 0
-0.0404085 -0.00971244 0
-0.0369845 -0.0120519 0
-0.0326144 -0.0138207 0
-0.0274606 -0.0147771 0
-0.0217824 -0.014718 0
-0.015933 -0.0135278 0
-0.0103374 -0.0112317 0
-0.00544446 -0.00803897 0
-0.00165128 -0.00435296 0
0.000789035 -0.000725001 0
0.00186199 0.00225292 0
0.00181352 0.00409049 0
0.00108959 0.00431146 0
0.000312414 0.002368 0
-0.00066681 0.00275593 0
-0.00283289 0.00727907 0
-0.00630222 0.010437 0
-0.0104904 0.0124108 0
-0.0150489 0.0135359 0
-0.0197817 0.0140987 0
-0.0245743 0.014275 0
-0.0293482 0.0141387 0
-0.0340351 0.0136942 0
-0.0385632 0.0129073 0
-0.0428501 0.0117284 0
-0.0467987 0.0101089 0
-0.0502965 0.00801394 0
-0.0532159 0.00543267 0
-0.0554183 0.00238762 0
-0.0567584 -0.00105737 0
-0.0570909 -0.00479895 0
-0.056279 -0.00869376 0
-0.0542122 -0.0125321 0
-0.0508322 -0.0160363 0
-0.0461603 -0.0188784 0
-0.0403213 -0.0207122 0
-0.0335622 -0.0212202 0
-0.0262604 -0.0201768 0
-0.0189141 -0.0175247 0
-0.0121013 -0.0134518 0
-0.00639619 -0.0084384 0
-0.00224393 -0.00323215 0
0.000170664 0.00127252 0
0.00102617 0.00426386 0
0.000820556 0.00506763 0
0.000264572 0.00294499 0
-0.000819283 0.00424202 0
-0.00343479 0.0105746 0
-0.0075532 0.0147292 0
-0.012463 0.0172165 0
-0.0177684 0.018594 0
-0.023267 0.019272 0
-0.0288562 0.0194835 0
-0.034475 0.0193228 0
-0.0400723 0.0187943 0
-0.0455889 0.0178521 0
-0.0509468 0.0164284 0
-0.0560423 0.0144531 0
-0.0607437 0.0118688 0
-0.0648914 0.00864497 0
-0.068303 0.00478925 0
-0.0707794 0.000357622 0
-0.0721177 -0.00454324 0
-0.072121 -0.00975811 0
-0.0706118 -0.0150436 0
-0.0674623 -0.0200543 0
-0.0626287 -0.0243659 0
-0.0561823 -0.0275103 0
-0.0483356 -0.0290279 0
-0.0394652 -0.0285411 0
-0.0301204 -0.0258516 0
-0.0210015 -0.0210567 0
-0.0128855 -0.0146545 0
-0.00647791 -0.00757586 0
-0.00221083 -0.00106544 0
-6.42785e-05 0.00359975 0
0.000462953 0.00541013 0
0.000205934 0.00341549 0
-0.000963276 0.00602458 0
-0.00399943 0.0144437 0
-0.00872373 0.0197028 0
-0.0143147 0.0227437 0
-0.0203431 0.0244006 0
-0.0266108 0.0252317 0
-0.0330348 0.0255369 0
-0.0395775 0.0254309 0
-0.0462072 0.0249132 0
-0.0528754 0.0239179 0
-0.0595019 0.022347 0
-0.0659669 0.020095 0
-0.0721074 0.0170688 0
-0.0777203 0.0132057 0
-0.0825695 0.00848924 0
-0.0863978 0.00296247 0
-0.0889435 -0.00326413 0
-0.0899547 -0.0100228 0
-0.0891947 -0.017048 0
-0.0864664 -0.0239279 0
-0.0816541 -0.0301381 0
-0.0747587 -0.0350799 0
-0.0659317 -0.038132 0
-0.0555117 -0.0387273 0
-0.0440567 -0.0364652 0
-0.0323542 -0.0312646 0
-0.0213772 -0.0235397 0
-0.0121412 -0.0143342 0
-0.00543905 -0.00527635 0
-0.00153561 0.00176065 0
-5.44764e-07 0.00518693 0
0.000136871 0.0037583 0
-0.00109463 0.00808249 0
-0.00451267 0.0188399 0
-0.00978894 0.0253071 0
-0.0160122 0.0289537 0
-0.0227333 0.03094 0
-0.0297667 0.0319935 0
-0.037054 0.0324865 0
-0.0445819 0.0325518 0
-0.0523354 0.0321755 0
-0.0602701 0.0312584 0
-0.0682951 0.029658 0
-0.0762649 0.0272188 0
-0.0839785 0.0237992 0
-0.0911852 0.0192949 0
-0.0975962 0.0136602 0
-0.1029 0.00692361 0
-0.106779 -0.000800331 0
-0.108937 -0.00931743 0
-0.109095 -0.0183558 0
-0.106994 -0.0274487 0
-0.102446 -0.0359778 0
-0.0953659 -0.0432157 0
-0.0858163 -0.0483729 0
-0.074054 -0.0506687 0
-0.060587 -0.0494458 0
-0.0462252 -0.0443484 0
-0.0320889 -0.0355691 0
-0.0195104 -0.0241193 0
-0.00974698 -0.0119569 0
-0.00351802 -0.00169121 0
-0.000612907 0.00419862 0
5.05567e-05 0.00394573 0
-0.00120758 0.0103847 0
-0.00495489 0.0237031 0
-0.0107132 0.0314786 0
-0.0175036 0.0357958 0
-0.0248679 0.0381833 0
-0.0326383 0.0395541 0
-0.0407807 0.0403555 0
-0.0493022 0.0407322 0
-0.0581978 0.0406443 0
-0.0674192 0.0399456 0
-0.0768575 0.0384341 0
-0.0863377 0.0358926 0
-0.0956212 0.0321224 0
-0.104416 0.0269728 0
-0.112389 0.0203667 0
-0.119188 0.0123194 0
-0.124455 0.00295034 0
-0.127852 -0.00751263 0
-0.129071 -0.0187844 0
-0.127816 -0.0303751 0
-0.123828 -0.0415882 0
-0.11693 -0.0515831 0
-0.107072 -0.0594131 0
-0.0943838 -0.064079 0
-0.0792561 -0.0646302 0
-0.062434 -0.0603479 0
-0.0450935 -0.0510464 0
-0.0288264 -0.0374877 0
-0.0154034 -0.0217749 0
-0.00619554 -0.00730998 0
-0.00145329 0.00217002 0
-6.93565e-05 0.00392693 0
-0.00129478 0.0128871 0
-0.00530084 0.0289541 0
-0.0114494 0.0381345 0
-0.0187165 0.0431974 0
-0.026643 0.0460726 0
-0.0350777 0.0478699 0
-0.0440061 0.0491104 0
-0.0534483 0.049941 0
-0.0634012 0.050284 0
-0.0738059 0.049932 0
-0.0845334 0.0486135 0
-0.095382 0.0460421 0
-0.106084 0.0419587 0
-0.11632 0.0361661 0
-0.125729 0.0285568 0
-0.133935 0.0191338 0
-0.140555 0.00802299 0
-0.14522 -0.0045227 0
-0.147607 -0.0181686 0
-0.147405 -0.0324474 0
-0.1443 -0.0466098 0
-0.138027 -0.0597322 0
-0.128408 -0.0707411 0
-0.115408 -0.0784392 0
-0.0992328 -0.0815733 0
-0.0804619 -0.0789978 0
-0.0602026 -0.0699964 0
-0.0401867 -0.0548206 0
-0.0226585 -0.0353931 0
-0.00979753 -0.0157606 0
-0.00262886 -0.00129026 0
-0.000241578 0.00361599 0
-0.00134796 0.0155298 0
-0.00552169 0.0344912 0
-0.0119422 0.0451664 0
-0.0195642 0.0510546 0
-0.0279302 0.0545079 0
-0.0369002 0.0568394 0
-0.0464706 0.0586397 0
-0.0566653 0.0600488 0
-0.067476 0.0609397 0
-0.0788306 0.0610356 0
-0.0905828 0.0599896 0
-0.102514 0.0574453 0
-0.11434 0.0530847 0
-0.125732 0.0466665 0
-0.136321 0.0380555 0
-0.145724 0.0272437 0
-0.153553 0.0143625 0
-0.159436 -0.000313912 0
-0.163042 -0.0163849 0
-0.164055 -0.0334197 0
-0.162142 -0.0506563 0
-0.156967 -0.067133 0
-0.148224 -0.0817021 0
-0.135686 -0.0930165 0
-0.11931 -0.0995469 0
-0.0994121 -0.0996933 0
-0.0768856 -0.0920867 0
-0.0534324 -0.0761994 0
-0.0316345 -0.0533404 0
-0.0145267 -0.0277822 0
-0.00425766 -0.00670637 0
-0.000493629 0.00288078 0
-0.00135906 0.0182368 0
-0.00558889 0.0401877 0
-0.0121358 0.0524373 0
-0.0199567 0.0592267 0
-0.0285948 0.0633398 0
-0.037912 0.0662946 0
-0.0479042 0.068747 0
-0.0585906 0.0708227 0
-0.069953 0.0723388 0
-0.0819077 0.0729458 0
-0.0942985 0.0722224 0
-0.106901 0.0697457 0
-0.119434 0.0651442 0
-0.131573 0.0581373 0
-0.142965 0.0485655 0
-0.153239 0.0364115 0
-0.162027 0.0218119 0
-0.168969 0.00506202 0
-0.173737 -0.0133876 0
-0.17604 -0.0331007 0
-0.175568 -0.0533613 0
-0.171942 -0.0732283 0
-0.16474 -0.0915515 0
-0.153532 -0.106913 0
-0.137984 -0.117574 0
-0.118049 -0.121499 0
-0.0942622 -0.116595 0
-0.068093 -0.101314 0
-0.0422445 -0.0758721 0
-0.0205125 -0.0440903 0
-0.00645786 -0.0147219 0
-0.000856373 0.00153078 0
-0.00132181 0.0209177 0
-0.00547935 0.0458942 0
-0.0119832 0.0597815 0
-0.0198167 0.0675369 0
-0.0285196 0.0723707 0
-0.0379438 0.0760051 0
-0.0480738 0.0791587 0
-0.0589163 0.0819399 0
-0.0704418 0.0841095 0
-0.0825595 0.0852474 0
-0.0951122 0.0848641 0
-0.107883 0.0824776 0
-0.120608 0.07767 0
-0.132985 0.0701282 0
-0.144693 0.0596738 0
-0.155398 0.0462832 0
-0.16477 0.0300996 0
-0.172489 0.0114355 0
-0.178249 -0.00923336 0
-0.181812 -0.0313887 0
-0.182929 -0.0544289 0
-0.18122 -0.0774954 0
-0.176181 -0.0995252 0
-0.16719 -0.119139 0
-0.153593 -0.134493 0
-0.13491 -0.143198 0
-0.111172 -0.142421 0
-0.0834052 -0.129423 0
-0.054162 -0.102855 0
-0.0277672 -0.0652343 0
-0.00932538 -0.0260744 0
-0.001359 -0.000684595 0
-0.00123324 0.0234727 0
-0.00518081 0.0514442 0
-0.011457 0.0670115 0
-0.0190953 0.0757788 0
-0.0276277 0.0813641 0
-0.0368835 0.0856916 0
-0.046825 0.0895437 0
-0.0574418 0.0930142 0
-0.0686936 0.0958126 0
-0.0804881 0.0974564 0
-0.0926768 0.0973966 0
-0.105062 0.0951016 0
-0.117407 0.0901159 0
-0.129449 0.0821016 0
-0.140909 0.0708681 0
-0.151507 0.056392 0
-0.160973 0.0388282 0
-0.169056 0.0185087 0
-0.175531 -0.00407109 0
-0.180221 -0.0282979 0
-0.182941 -0.0536829 0
-0.183376 -0.0795151 0
-0.180998 -0.104923 0
-0.17503 -0.1287 0
-0.164504 -0.149054 0
-0.148454 -0.163371 0
-0.126291 -0.16815 0
-0.0983877 -0.159364 0
-0.0668404 -0.133704 0
-0.0361617 -0.0914586 0
-0.012917 -0.0415366 0
-0.00203103 -0.00407463 0
-0.00109504 0.025801 0
-0.00469637 0.0566649 0
-0.0105571 0.0739278 0
-0.0177853 0.083729 0
-0.0259007 0.0900616 0
-0.034699 0.0950483 0
-0.0441119 0.0995414 0
-0.0541081 0.103629 0
-0.0646394 0.106981 0
-0.0756182 0.109062 0
-0.0869137 0.109276 0
-0.0983572 0.107051 0
-0.10975 0.101905 0
-0.120877 0.0934811 0
-0.131514 0.0815855 0
-0.141446 0.0662045 0
-0.150479 0.0475149 0
-0.158453 0.0258791 0
-0.165244 0.00182437 0
-0.170757 -0.0239898 0
-0.174915 -0.0511134 0
-0.177523 -0.0790411 0
-0.178098 -0.107201 0
-0.175774 -0.134714 0
-0.169309 -0.160029 0
-0.157245 -0.180509 0
-0.138282 -0.192137 0
-0.111949 -0.189614 0
-0.0795747 -0.167376 0
-0.0454379 -0.122602 0
-0.0172576 -0.0618186 0
-0.00291528 -0.00902094 0
-0.000914299 0.0278104 0
-0.0040474 0.0613899 0
-0.0093173 0.0803334 0
-0.0159294 0.0911637 0
-0.0233895 0.0982023 0
-0.0314513 0.103768 0
-0.0400092 0.108793 0
-0.0490097 0.113375 0
-0.0583998 0.117157 0
-0.0681039 0.119568 0
-0.0780172 0.119978 0
-0.0880086 0.117784 0
-0.0979273 0.112484 0
-0.107611 0.103712 0
-0.116899 0.0912788 0
-0.125645 0.0751891 0
-0.133736 0.0556552 0
-0.141108 0.0330846 0
-0.147745 0.00804633 0
-0.153665 -0.0187783 0
-0.158928 -0.0469044 0
-0.163509 -0.0760608 0
-0.16705 -0.106065 0
-0.168697 -0.136526 0
-0.167024 -0.166355 0
-0.160118 -0.193154 0
-0.145936 -0.212638 0
-0.123007 -0.218375 0
-0.0915846 -0.202411 0
-0.0552452 -0.158043 0
-0.0223602 -0.0874426 0
-0.00408164 -0.0160179 0
-0.000703604 0.0294283 0
-0.00327435 0.0654759 0
-0.00780656 0.0860496 0
-0.0136224 0.0978755 0
-0.0202158 0.105544 0
-0.027293 0.111565 0
-0.0347074 0.116968 0
-0.0423837 0.121877 0
-0.0502682 0.125929 0
-0.0583037 0.128535 0
-0.0664198 0.12904 0
-0.0745321 0.126825 0
-0.0825451 0.121374 0
-0.0903581 0.112319 0
-0.0978753 0.0994771 0
-0.105019 0.0828806 0
-0.111751 0.0627866 0
-0.118089 0.0396637 0
-0.124126 0.0141408 0
-0.129999 -0.0130799 0
-0.135916 -0.0414233 0
-0.142047 -0.0708299 0
-0.148247 -0.101554 0
-0.153805 -0.133831 0
-0.157254 -0.167275 0
-0.156345 -0.200049 0
-0.148318 -0.227953 0
-0.130601 -0.243707 0
-0.102097 -0.237006 0
-0.0651854 -0.1967 0
-0.0282333 -0.118623 0
-0.00562481 -0.0257243 0
-0.000480451 0.0306123 0
-0.00243568 0.0688178 0
-0.0061283 0.0909325 0
-0.0110098 0.10369 0
-0.0165667 0.11188 0
-0.0224584 0.118198 0
-0.0284961 0.123787 0
-0.0345845 0.128822 0
-0.0406739 0.132958 0
-0.0467321 0.135601 0
-0.0527309 0.13609 0
-0.0586407 0.133798 0
-0.0644303 0.128204 0
-0.070069 0.118941 0
-0.0755318 0.105835 0
-0.0808094 0.088944 0
-0.0859242 0.0685695 0
-0.090955 0.0452503 0
-0.0960637 0.0196994 0
-0.101508 -0.00732123 0
-0.107612 -0.0351611 0
-0.114714 -0.0638586 0
-0.122956 -0.0940834 0
-0.131922 -0.126778 0
-0.140313 -0.162489 0
-0.145744 -0.200313 0
-0.144864 -0.236597 0
-0.133979 -0.263664 0
-0.110414 -0.269118 0
-0.0748498 -0.237062 0
-0.0348744 -0.155188 0
-0.00764667 -0.0389958 0
-0.000266312 0.0313591 0
-0.00160564 0.0713656 0
-0.00441697 0.0948887 0
-0.00828086 0.108479 0
-0.0126846 0.117051 0
-0.0172454 0.123479 0
-0.0217367 0.129035 0
-0.0260472 0.133973 0
-0.0301358 0.137985 0
-0.0340013 0.140497 0
-0.0376636 0.140855 0
-0.0411551 0.138435 0
-0.0445163 0.132719 0
-0.0477957 0.123344 0
-0.0510491 0.110148 0
-0.0543434 0.0932031 0
-0.0577637 0.0728455 0
-0.0614302 0.0496716 0
-0.065528 0.0244845 0
-0.0703424 -0.00184781 0
-0.0762538 -0.0286192 0
-0.0837328 -0.0558192 0
-0.0932014 -0.0844121 0
-0.104666 -0.116018 0
-0.117249 -0.152275 0
-0.128739 -0.193605 0
-0.135445 -0.23748 0
-0.132649 -0.276462 0
-0.115944 -0.296592 0
-0.0838369 -0.27726 0
-0.0422515 -0.196551 0
-0.0102347 -0.0568771 0
-8.57869e-05 0.0317112 0
-0.000872183 0.0731392 0
-0.00283479 0.097889 0
-0.00566339 0.112171 0
-0.00885476 0.120954 0
-0.0119964 0.127279 0
-0.0148343 0.132565 0
-0.0172485 0.137168 0
-0.0192126 0.140843 0
-0.0207606 0.143053 0
-0.0219647 0.143165 0
-0.0229214 0.140572 0
-0.0237469 0.134768 0
-0.024574 0.125401 0
-0.0255485 0.112319 0
-0.0268253 0.0956034 0
-0.0285658 0.075606 0
-0.0309388 0.0529507 0
-0.0341318 0.0284963 0
-0.0383807 0.0032037 0
-0.0440106 -0.0221294 0
-0.0514937 -0.0473469 0
-0.0614192 -0.0734902 0
-0.0742465 -0.102648 0
-0.089762 -0.137547 0
-0.106338 -0.180266 0
-0.120367 -0.230083 0
-0.12637 -0.280652 0
-0.118193 -0.317284 0
-0.0917358 -0.315132 0
-0.0502814 -0.241719 0
-0.0134477 -0.0805595 0
3.32273e-05 0.0317637 0
-0.000337207 0.0742435 0
-0.00157074 0.0999808 0
-0.00341843 0.114756 0
-0.00539435 0.123537 0
-0.00707837 0.129521 0
-0.0082081 0.134289 0
-0.00866834 0.138318 0
-0.00845475 0.141444 0
-0.00764014 0.143185 0
-0.0063496 0.142946 0
-0.00474238 0.140141 0
-0.0030075 0.13429 0
-0.00136236 0.125061 0
-4.40451e-05 0.112315 0
0.000698304 0.0961415 0
0.000613744 0.0768928 0
-0.000539202 0.0551898 0
-0.00297841 0.0318893 0
-0.00689026 0.00797132 0
-0.0124562 -0.0157011 0
-0.0199521 -0.0387963 0
-0.0298969 -0.0621706 0
-0.0430528 -0.087984 0
-0.059968 -0.11978 0
-0.0800253 -0.1614 0
-0.100314 -0.214631 0
-0.115108 -0.275307 0
-0.116698 -0.329216 0
-0.0980624 -0.348293 0
-0.0587901 -0.289284 0
-0.0173053 -0.111313 0
5.64966e-05 0.031674 0
-0.000122813 0.074883 0
-0.00084532 0.101297 0
-0.00184007 0.116282 0
-0.00264444 0.124792 0
-0.0028649 0.130171 0
-0.00226308 0.134167 0
-0.000749648 0.137387 0
0.00164895 0.139762 0
0.0048199 0.140881 0
0.00858585 0.140194 0
0.0127193 0.137152 0
0.0169534 0.131309 0
0.0209898 0.12236 0
0.0245054 0.110182 0
0.0271639 0.0948734 0
0.0286322 0.0767772 0
0.0286036 0.0564871 0
0.0268272 0.0348076 0
0.0231373 0.0126548 0
0.0174582 -0.00913947 0
0.00976114 -0.0301651 0
-0.000178373 -0.0509175 0
-0.013078 -0.0731815 0
-0.0300034 -0.100742 0
-0.0515607 -0.138823 0
-0.076254 -0.192226 0
-0.0989476 -0.260225 0
-0.110918 -0.330737 0
-0.102135 -0.374191 0
-0.0674286 -0.337365 0
-0.0217636 -0.150382 0
-5.94228e-05 0.0316769 0
-0.000382055 0.075382 0
-0.000923914 0.102063 0
-0.00126126 0.116848 0
-0.000964633 0.124733 0
0.000282034 0.129204 0
0.00264782 0.132167 0
0.00616171 0.13436 0
0.0107429 0.13581 0
0.0162294 0.136176 0
0.0223919 0.13497 0
0.028942 0.131692 0
0.0355449 0.125932 0
0.04183 0.117416 0
0.0474008 0.10604 0
0.0518502 0.0919075 0
0.0547821 0.075343 0
0.0558414 0.0568906 0
0.0547511 0.0372707 0
0.0513472 0.0172855 0
0.0455997 -0.0023435 0
0.0375875 -0.0212519 0
0.0273532 -0.0396568 0
0.0146512 -0.0588404 0
-0.00149368 -0.0820131 0
-0.0226701 -0.114819 0
-0.0493093 -0.164898 0
-0.078009 -0.236159 0
-0.100091 -0.320749 0
-0.102882 -0.39017 0
-0.0755128 -0.383462 0
-0.0266588 -0.198804 0
-0.000387366 0.0321237 0
-0.00133868 0.0762091 0
-0.00214747 0.102586 0
-0.00206666 0.116581 0
-0.000729656 0.123366 0
0.00202013 0.126574 0
0.00620814 0.128243 0
0.0117579 0.12922 0
0.018515 0.129611 0
0.0262613 0.129142 0
0.0347167 0.127387 0
0.0435424 0.1239 0
0.0523496 0.118314 0
0.0607124 0.110386 0
0.0681811 0.100031 0
0.0743007 0.0873481 0
0.0786377 0.0726336 0
0.0808136 0.0563648 0
0.0805429 0.0391575 0
0.0776671 0.0216784 0
0.0721684 0.00450984 0
0.0641349 -0.0120596 0
0.0536908 -0.0281706 0
0.0408373 -0.0447711 0
0.0251587 -0.064259 0
0.00538461 -0.0916223 0
-0.0205803 -0.13549 0
-0.052388 -0.20506 0
-0.0831101 -0.299045 0
-0.0985879 -0.393606 0
-0.0817591 -0.424224 0
-0.0315961 -0.257059 0
-0.00105586 0.033567 0
-0.00334305 0.0780044 0
-0.00497524 0.103232 0
-0.00470383 0.115583 0
-0.00232147 0.120645 0
0.00203736 0.122187 0
0.00816178 0.122317 0
0.0158211 0.121937 0
0.0247671 0.121191 0
0.0347223 0.11986 0
0.0453636 0.117572 0
0.0563157 0.113937 0
0.0671554 0.10863 0
0.0774234 0.101439 0
0.0866406 0.0922917 0
0.0943304 0.0812776 0
0.100048 0.06865 0
0.103412 0.054808 0
0.104145 0.0402523 0
0.102095 0.0255089 0
0.0972507 0.0110225 0
0.0897006 -0.00298873 0
0.0795759 -0.0166726 0
0.0669534 -0.0307932 0
0.0516659 -0.0472708 0
0.0329925 -0.070163 0
0.00920586 -0.107198 0
-0.0221101 -0.170228 0
-0.0584632 -0.266801 0
-0.0866093 -0.382226 0
-0.0838801 -0.455162 0
-0.0357544 -0.324409 0
-0.00230433 0.0369271 0
-0.00696404 0.0815911 0
-0.0100163 0.10433 0
-0.00964068 0.113839 0
-0.0060354 0.116402 0
0.000179861 0.115856 0
0.00845362 0.11425 0
0.0183588 0.112439 0
0.0295455 0.110556 0
0.0416841 0.108402 0
0.054424 0.105649 0
0.0673734 0.101958 0
0.0800974 0.0970455 0
0.0921285 0.0907248 0
0.102985 0.082932 0
0.112196 0.073737 0
0.119328 0.0633416 0
0.12402 0.0520592 0
0.126015 0.0402737 0
0.125177 0.0283756 0
0.121498 0.0166791 0
0.115081 0.00532179 0
0.106081 -0.00585858 0
0.0945825 -0.0174864 0
0.0804645 -0.031172 0
0.0632143 -0.0503381 0
0.0415671 -0.0815893 0
0.0131301 -0.136084 0
-0.0242599 -0.227202 0
-0.0631365 -0.354802 0
-0.0780159 -0.470436 0
-0.0375568 -0.397721 0
-0.00456105 0.0437925 0
-0.0130548 0.0878792 0
-0.0179034 0.105942 0
-0.0170703 0.111017 0
-0.0116779 0.110225 0
-0.00308861 0.107228 0
0.00772403 0.103792 0
0.0201297 0.100586 0
0.0336945 0.0976571 0
0.0480634 0.0947931 0
0.0628851 0.0916961 0
0.0777783 0.0880686 0
0.0923246 0.0836648 0
0.106077 0.0783214 0
0.118582 0.0719746 0
0.129398 0.0646676 0
0.138133 0.0565442 0
0.144467 0.0478298 0
0.148179 0.0387959 0
0.149163 0.0297087 0
0.147422 0.0207654 0
0.143056 0.012018 0
0.136221 0.00328096 0
0.127057 -0.00596423 0
0.11545 -0.0169689 0
0.100855 -0.0326957 0
0.0821035 -0.0588336 0
0.056902 -0.105201 0
0.0219219 -0.185715 0
-0.0231128 -0.312378 0
-0.0580165 -0.463077 0
-0.0341389 -0.469416 0
-0.00844225 0.0567958 0
-0.0223977 0.097325 0
-0.0283143 0.107262 0
-0.0254946 0.106045 0
-0.0168702 0.10118 0
-0.0047859 0.0955993 0
0.00937202 0.0904504 0
0.0248429 0.0860518 0
0.04118 0.0822898 0
0.0580579 0.0789137 0
0.075169 0.0756426 0
0.0921819 0.0722159 0
0.108731 0.068422 0
0.124426 0.0641161 0
0.138872 0.0592302 0
0.151692 0.0537755 0
0.162558 0.0478358 0
0.171211 0.0415512 0