# vtk DataFile Version 2.0
Lid-driven cavity
ASCII
DATASET STRUCTURED_POINTS
DIMENSIONS 32 32 1
ORIGIN 0.015625 0.015625 0
SPACING 0.03125 0.03125 1
POINT_DATA 1024
SCALARS pressure double 1
LOOKUP_TABLE default
6.54437
6.52357
6.50358
6.4952
6.50228
6.52547
6.56456
6.61946
6.69044
6.77804
6.88277
7.0048
7.14364
7.29784
7.46478
7.6406
7.82018
7.99717
8.16437
8.3143
8.44013
8.53673
8.60149
8.63482
8.64006
8.62293
8.5906
8.55059
8.51008
8.47581
8.45371
8.44764
6.56518
6.54361
6.52916
6.5263
6.53706
6.56201
6.60133
6.65526
6.72428
6.80898
6.90986
7.02707
7.16014
7.30773
7.46739
7.63546
7.80719
7.97655
8.13672
8.28055
8.40154
8.49484
8.5581
8.59196
8.59982
8.58719
8.56087
8.52779
8.49418
8.46563
8.44688
8.44155
6.58499
6.55571
6.54104
6.54044
6.55334
6.57931
6.6183
6.67065
6.73701
6.81817
6.91484
7.0274
7.15565
7.29858
7.45402
7.61858
7.78761
7.9551
8.11416
8.25738
8.37794
8.47071
8.53317
8.56601
8.57302
8.56016
8.53436
8.50266
8.47085
8.44382
8.42553
8.41925
6.58865
6.55041
6.53317
6.53272
6.54621
6.57205
6.60975
6.65964
6.72252
6.79946
6.89151
6.99945
7.12356
7.26333
7.4171
7.58174
7.75242
7.92299
8.08617
8.23392
8.35863
8.45435
8.51794
8.54986
8.55417
8.5377
8.50841
8.47363
8.43951
8.41055
8.3903
8.38175
6.56489
6.51833
6.49786
6.49638
6.50918
6.53369
6.56904
6.61547
6.67398
6.74593
6.83278
6.93587
7.05606
7.1935
7.34726
7.51476
7.69064
7.86861
8.04087
8.19854
8.33282
8.43639
8.50486
8.5379
8.5396
8.51762
8.4814
8.43991
8.39967
8.36559
8.34118
8.32946
6.50448
6.45065
6.42698
6.42384
6.43498
6.45711
6.48901
6.53093
6.58402
6.64995
6.73063
6.82794
6.94346
7.07816
7.23201
7.40354
7.58689
7.77567
7.96174
8.13535
8.28618
8.40487
8.48487
8.52411
8.5259
8.4985
8.45312
8.40101
8.35087
8.30828
8.27723
8.26123
6.39921
6.33907
6.31243
6.30725
6.31598
6.33472
6.36205
6.39819
6.4444
6.5026
6.57509
6.66433
6.77263
6.90191
7.05334
7.22702
7.41779
7.61904
7.82289
8.01904
8.19547
8.34006
8.44282
8.49832
8.50753
8.47824
8.42338
8.3575
8.29287
8.23746
8.19639
8.17421
6.24146
6.17584
6.14639
6.1388
6.14433
6.15857
6.17986
6.20835
6.24529
6.29273
6.35321
6.42966
6.52521
6.64288
6.78535
6.95455
7.14848
7.3604
7.58393
7.809
8.0221
8.20774
8.35094
8.44049
8.47225
8.45112
8.39063
8.30928
8.22507
8.15099
8.0953
8.06376
6.02414
5.95368
5.92143
5.91085
5.91211
5.92024
5.93331
5.95119
5.97493
6.00639
6.04818
6.10357
6.17646
6.27125
6.39254
6.5447
6.73046
6.9453
7.18595
7.44417
7.70588
7.952
8.16098
8.31284
8.39411
8.40241
8.3486
8.25452
8.14633
8.04633
7.96894
7.92313
5.74075
5.66601
5.63069
5.61615
5.61148
5.6111
5.61257
5.61524
5.61957
5.6269
5.63953
5.66083
5.69549
5.74953
5.83017
5.94523
6.10216
6.30325
6.5507
6.84094
7.16125
7.48969
7.79713
8.05158
8.22492
8.30067
8.28056
8.18618
8.05312
7.91859
7.80981
7.743
5.38567
5.30713
5.26816
5.24814
5.23508
5.22265
5.20763
5.18843
5.16445
5.13597
5.10449
5.07318
5.04743
5.03521
5.04708
5.09559
5.1939
5.3529
5.58506
5.89655
6.2791
6.71
7.15279
7.56108
7.88633
8.08912
8.15168
8.08685
7.93726
7.76095
7.60872
7.51079
4.95455
4.87266
4.8291
4.80148
4.77669
4.74747
4.70944
4.65956
4.59556
4.51603
4.42105
4.31313
4.19819
4.08639
3.99243
3.93496
3.93489
4.01233
4.19211
4.5001
4.93669
5.48219
6.09511
6.71425
7.26615
7.67885
7.90104
7.92194
7.78197
7.56261
7.35254
7.20979
4.44481
4.36
4.31064
4.27277
4.23216
4.18035
4.11143
4.02033
3.90239
3.75375
3.57238
3.35951
3.12127
2.87012
2.6256
2.41385
2.26566
2.2126
2.28868
2.55162
3.01696
3.67364
4.48006
5.36309
6.22306
6.94756
7.4361
7.63287
7.55668
7.30669
7.02399
6.81857
3.85609
3.76881
3.71231
3.66128
3.60038
3.51972
3.41141
3.26775
3.08102
2.84409
2.55198
2.20394
1.80583
1.37228
0.928032
0.507893
0.154555
-0.085871
-0.170321
-0.012545
0.435566
1.17755
2.17884
3.36126
4.60291
5.74814
6.63354
7.13277
7.21206
6.96808
6.60266
6.31175
3.19062
3.1014
3.03653
2.96963
2.88425
2.76888
2.61323
2.40649
2.13714
1.79407
1.36852
0.856975
0.264334
-0.393046
-1.08518
-1.76802
-2.38559
-2.87525
-3.17635
-3.19512
-2.8296
-2.05427
-0.887829
0.597304
2.26755
3.92952
5.35036
6.30862
6.67723
6.51092
6.06475
5.65988
2.45333
2.36282
2.28878
2.20411
2.09123
1.93686
1.72802
1.45035
1.08805
0.625339
0.0490182
-0.648004
-1.4626
-2.37739
-3.35766
-4.3502
-5.28514
-6.08155
-6.65718
-6.91723
-6.71358
-5.98127
-4.71467
-2.9673
-0.867573
1.36932
3.44702
5.033
5.86252
5.88835
5.38452
4.83104
1.65163
1.5606
1.47743
1.37457
1.23336
1.03857
0.774411
0.422692
-0.0369518
-0.625355
-1.36072
-2.25437
-3.30576
-4.49748
-5.79108
-7.12509
-8.41629
-9.56529
-10.4669
-11.0172
-11.054
-10.4572
-9.18691
-7.26534
-4.79505
-1.98688
0.821432
3.18747
4.67114
5.04737
4.53941
3.79849
0.794699
0.704023
0.61297
0.493777
0.326572
0.0941375
-0.222259
-0.644631
-1.19798
-1.9083
-2.79901
-3.88612
-5.17241
-6.64147
-8.2526
-9.93774
-11.6021
-13.1295
-14.3928
-15.2692
-15.602
-15.2346
-14.076
-12.1082
-9.38801
-6.08929
-2.55241
0.695706
3.02182
3.94271
3.52243
2.5559
-0.107574
-0.196981
-0.293095
-0.423839
-0.610528
-0.872604
-1.23175
-1.7137
-2.34788
-3.16521
-4.19421
-5.45566
-6.95617
-8.68142
-10.5901
-12.6099
-14.6373
-16.5425
-18.1796
-19.4027
-20.061
-19.9939
-19.0624
-17.1969
-14.3954
-10.7629
-6.59131
-2.43969
0.880861
2.56205
2.36685
1.14779
-1.04611
-1.13342
-1.22986
-1.36372
-1.5584
-1.83605
-2.22145
-2.74386
-3.43669
-4.33524
-5.47262
-6.87408
-8.55021
-10.4896
-12.6521
-14.9639
-17.3166
-19.5708
-21.5667
-23.1391
-24.1323
-24.3967
-23.7837
-22.162
-19.4673
-15.7124
-11.0876
-6.10744
-1.70298
0.960437
1.18406
-0.284042
-2.01445
-2.09907
-2.18881
-2.31298
-2.49842
-2.77103
-3.15912
-3.69534
-4.41652
-5.36149
-6.56699
-8.062
-9.86079
-11.9553
-14.3082
-16.8471
-19.4627
-22.0117
-24.3258
-26.227
-27.5478
-28.1472
-27.8919
-26.624
-24.2081
-20.5589
-15.722
-10.0775
-4.57262
-0.705085
0.208626
-1.4426
-3.01093
-3.09268
-3.16579
-3.26214
-3.41455
-3.65471
-4.01538
-4.53265
-5.24608
-6.19689
-7.4241
-8.9591
-10.8191
-12.9994
-15.4664
-18.1518
-20.9499
-23.719
-26.2892
-28.4765
-30.1016
-31.0223
-31.1197
-30.2582
-28.2444
-24.901
-20.1067
-14.0197
-7.45879
-2.15373
-0.160778
-1.81383
-4.0415
-4.12049
-4.16299
-4.20659
-4.29464
-4.468
-4.76562
-5.22719
-5.89419
-6.80879
-8.01091
-9.53316
-11.3943
-13.592
-16.096
-18.843
-21.7332
-24.6323
-27.3772
-29.7869
-31.6776
-32.8932
-33.3169
-32.8434
-31.2874
-28.3842
-23.8498
-17.5514
-10.0056
-2.98428
0.66437
-0.605539
-5.12311
-5.19966
-5.19126
-5.1478
-5.131
-5.19624
-5.39112
-5.75929
-6.34332
-7.1852
-8.32411
-9.79183
-11.6067
-13.767
-16.2444
-18.9791
-21.8776
-24.8143
-27.6371
-30.1775
-32.262
-33.7296
-34.4468
-34.3031
-33.1693
-30.7551
-26.6188
-20.2973
-11.8189
-2.70589
3.46805
3.31676
-6.2909
-6.36382
-6.27291
-6.09404
-5.92029
-5.82904
-5.87886
-6.11705
-6.58588
-7.32525
-8.37154
-9.75386
-11.4884
-13.5724
-15.9778
-18.6474
-21.4927
-24.3964
-27.2174
-29.8006
-31.9878
-33.6268
-34.5806
-34.7147
-33.8913
-31.8848
-28.1741
-21.9297
-12.5087
-0.778419
9.22331
11.5154
-7.61087
-7.67277
-7.44592
-7.06067
-6.66215
-6.35861
-6.22034
-6.29596
-6.62449
-7.24089
-8.17645
-9.45567
-11.0911
-13.0774
-15.3861
-17.9613
-20.7186
-23.5472
-26.3153
-28.8791
-31.0925
-32.8157
-33.916
-34.2507
-33.6435
-31.8482
-28.3546
-22.1467
-11.6656
3.39213
19.106
26.1255
-9.20871
-9.23131
-8.76989
-8.06918
-7.3569
-6.7782
-6.4116
-6.2999
-6.47335
-6.95809
-7.77769
-8.95028
-10.4835
-12.3687
-14.576
-17.0502
-19.7099
-22.4495
-25.1442
-27.6575
-29.8508
-31.5899
-32.7485
-33.1788
-32.6738
-30.9032
-27.2766
-20.5692
-8.6972
10.613
34.6053
50.1214
-11.3409
-11.2267
-10.3321
-9.13985
-7.99661
-7.07636
-6.4491
-6.13769
-6.15464
-6.5124
-7.22417
-8.3003
-9.74277
-11.5392
-13.6577
-16.0432
-18.6165
-21.2758
-23.9009
-26.3599
-28.5158
-30.2324
-31.3749
-31.8002
-31.2623
-29.3222
-25.1621
-17.1679
-2.48973
22.3835
57.8815
87.7621
-14.5869
-13.9942
-12.2336
-10.2568
-8.53325
-7.21189
-6.30985
-5.80537
-5.68172
-5.93241
-6.55808
-7.56056
-8.9359
-10.6678
-12.7222
-15.0438
-17.5546
-20.1552
-22.7285
-25.1441
-27.263
-28.9402
-30.0211
-30.3286
-29.6191
-27.2789
-22.1092
-11.852
7.58231
41.6174
92.6277
145.054
-20.3986
-18.0438
-14.4412
-11.216
-8.76119
-7.0236
-5.8742
-5.2175
-4.9969
-5.18303
-5.76303
-6.73012
-8.0746
-9.77641
-11.7994
-14.0874
-16.5632
-19.129
-21.6691
-24.0528
-26.137
-27.7639
-28.751
-28.8668
-27.7804
-24.7772
-17.9749
-4.10914
22.6628
70.7882
146.62
228.916
-32.4814
-23.2998
-15.9482
-11.0436
-7.87113
-5.858
-4.63071
-3.97921
-3.79564
-4.02852
-4.65506
-5.66356
-7.04168
-8.76786
-10.8053
-13.0983
-15.5706
-18.126
-20.6497
-23.0104
-25.0593
-26.6239
-27.4879
-27.348
-25.723
-21.6643
-12.4886
6.34563
43.0625
111.463
231.638
399.743
-65.6829
-23.6269
-10.3732
-5.4707
-3.22263
-2.05809
-1.48496
-1.32738
-1.52107
-2.04696
-2.90402
-4.09501
-5.61729
-7.45612
-9.57988
-11.9372
-14.4557
-17.0425
-19.5852
-21.9527
-23.9921
-25.5174
-26.2806
-25.9043
-23.7312
-18.4096
-6.79311
16.6131
61.9837
149.29
326.193
725.047
VECTORS velocity double
4.84798e-05 -4.84799e-05 0
7.2477e-05 2.44826e-05 0
-7.17008e-05 0.000119695 0
-0.000382496 0.0001911 0
-0.000809263 0.000235666 0
-0.00130737 0.00026244 0
-0.00184944 0.00027963 0
-0.00242019 0.000291118 0
-0.00300818 0.000296871 0
-0.00359943 0.000294384 0
-0.00417382 0.00028 0
-0.00470369 0.000249872 0
-0.00515427 0.000200707 0
-0.00548545 0.00013047 0
-0.00565506 3.9146e-05 0
-0.00562367 -7.05402e-05 0
-0.00536059 -0.000192542 0
-0.00485039 -0.000317654 0
-0.00409905 -0.000433688 0
-0.00313904 -0.000526321 0
-0.00203175 -0.000580971 0
-0.000865167 -0.00058561 0
0.000254531 -0.000534088 0
0.00121788 -0.000429258 0
0.00193025 -0.000283113 0
0.00232888 -0.000115521 0
0.00239478 4.962e-05 0
0.00215508 0.000190085 0
0.00167619 0.000288802 0
0.00106249 0.000324898 0
0.00046797 0.000269622 0
9.91741e-05 9.9174e-05 0
-3.12605e-05 -6.56995e-05 0
-0.000290833 0.000277277 0
-0.000946767 0.000667013 0
-0.00195367 0.000961478 0
-0.00321246 0.00115085 0
-0.00463298 0.00126589 0
-0.00615013 0.0013354 0
-0.00771732 0.00137329 0
-0.00929399 0.00137936 0
-0.0108352 0.00134432 0
-0.0122855 0.00125477 0
-0.0135775 0.00109699 0
-0.0146333 0.000859998 0
-0.0153692 0.000538237 0
-0.0157025 0.000134326 0
-0.0155614 -0.000338213 0
-0.014896 -0.000853352 0
-0.013688 -0.0013751 0
-0.0119585 -0.00185709 0
-0.00977602 -0.00224538 0
-0.00726041 -0.0024848 0
-0.00458045 -0.00252832 0
-0.00194307 -0.00234847 0
0.000427457 -0.00194875 0
0.0023216 -0.00137013 0
0.00358167 -0.000687205 0
0.00413169 5.38282e-06 0
0.00399499 0.000610732 0
0.00329165 0.00105038 0
0.00222779 0.00124088 0
0.00109543 0.00108052 0
0.000277075 0.000475423 0
-0.00017081 0.00013637 0
-0.000855177 0.00101915 0
-0.00215989 0.00188579 0
-0.00393846 0.00252816 0
-0.00603965 0.00294415 0
-0.00834226 0.0031957 0
-0.0107574 0.00333789 0
-0.0132162 0.0033968 0
-0.0156551 0.00337142 0
-0.018005 0.00324338 0
-0.0201858 0.00298681 0
-0.0221051 0.00257624 0
-0.0236613 0.00199282 0
-0.0247497 0.00122963 0
-0.0252702 0.000296734 0
-0.0251381 -0.000773755 0
-0.0242955 -0.0019258 0
-0.0227192 -0.00308703 0
-0.020429 -0.00416485 0
-0.017498 -0.00505113 0
-0.0140596 -0.00563305 0
-0.0103098 -0.00580977 0
-0.00650043 -0.00551381 0
-0.00292048 -0.00473388 0
0.000134804 -0.00353443 0
0.00241142 -0.00205959 0
0.00375117 -0.000512004 0
0.00413032 0.000885669 0
0.0036708 0.0019383 0
0.0026228 0.00246481 0
0.00135134 0.0022604 0
0.000356373 0.00110887 0
-0.000329924 0.000637104 0
-0.00149468 0.00236753 0
-0.0035129 0.00386035 0
-0.00610292 0.00492218 0
-0.00905105 0.00559946 0
-0.0122093 0.00600127 0
-0.015475 0.0062131 0
-0.0187676 0.00627296 0
-0.0220113 0.00617787 0
-0.025124 0.00589954 0
-0.0280121 0.00539952 0
-0.0305705 0.00464125 0
-0.0326859 0.00359939 0
-0.0342421 0.00226763 0
-0.0351283 0.000665419 0
-0.0352472 -0.00115553 0
-0.0345238 -0.00311004 0
-0.0329124 -0.00509051 0
-0.0304074 -0.00695655 0
-0.0270578 -0.00854014 0
-0.0229802 -0.00965999 0
-0.0183679 -0.0101448 0
-0.0134912 -0.00986486 0
-0.00868552 -0.00876849 0
-0.00432243 -0.0069182 0
-0.000761547 -0.00451332 0
0.00171777 -0.00187736 0
0.00299464 0.000595009 0
0.00315312 0.00253001 0
0.00246065 0.00361358 0
0.00133569 0.00350805 0
0.000363319 0.00182856 0
-0.000495416 0.00146244 0
-0.00215823 0.00436976 0
-0.00490886 0.00662697 0
-0.00831817 0.00815488 0
-0.0121072 0.00910394 0
-0.0161058 0.00965367 0
-0.0202059 0.00992648 0
-0.0243262 0.00997248 0
-0.0283896 0.00978548 0
-0.0323113 0.00932623 0
-0.0359933 0.00854296 0
-0.0393243 0.0073873 0
-0.0421821 0.00582646 0
-0.0444384 0.00385304 0
-0.0459651 0.00149296 0
-0.0466416 -0.00118758 0
-0.0463596 -0.00408349 0
-0.0450305 -0.00705751 0
-0.0426017 -0.00992332 0
-0.0390759 -0.0124488 0
-0.0345317 -0.0143731 0
-0.0291401 -0.0154357 0
-0.0231737 -0.0154171 0
-0.0170045 -0.0141911 0
-0.011082 -0.0117812 0
-0.00588448 -0.00840874 0
-0.00183983 -0.0045059 0
0.00077359 -0.000666733 0
0.00193347 0.00247339 0
0.00189939 0.00439675 0
0.00114477 0.00460446 0
0.000328704 0.00252058 0
-0.00066225 0.00262011 0
-0.00282272 0.00703539 0
-0.00629875 0.010188 0
-0.0105156 0.01222 0
-0.0151347 0.013447 0
-0.0199712 0.0141457 0
-0.0249208 0.0144841 0
-0.0299104 0.0145249 0
-0.0348707 0.0142568 0
-0.0397209 0.0136268 0
-0.0443627 0.0125662 0
-0.0486783 0.0110107 0
-0.0525322 0.00891472 0
-0.0557748 0.00626365 0
-0.0582482 0.00308253 0
-0.0597919 -0.000556924 0
-0.060251 -0.00453714 0
-0.0594836 -0.00870026 0
-0.057376 -0.012817 0
-0.0538701 -0.0165868 0
-0.048991 -0.0196584 0
-0.0428707 -0.0216624 0
-0.035767 -0.0222606 0
-0.0280727 -0.0212111 0
-0.0203076 -0.0184487 0
-0.0130794 -0.014167 0
-0.00699846 -0.00887324 0
-0.00254634 -0.00336494 0
6.69914e-05 0.00139838 0
0.00102082 0.00455202 0
0.000839441 0.00538519 0
0.000273034 0.00312232 0
-0.000827066 0.00410943 0
-0.00347349 0.010353 0
-0.00765238 0.0145253 0
-0.0126538 0.017101 0
-0.0180908 0.0186221 0
-0.0237736 0.0194898 0
-0.0296096 0.0199255 0
-0.0355416 0.020005 0
-0.0415123 0.0197077 0
-0.0474474 0.0189611 0
-0.0532458 0.0176722 0
-0.0587779 0.0157523 0
-0.0638854 0.0131344 0
-0.0683858 0.00978701 0
-0.0720786 0.00572543 0
-0.0747538 0.00101902 0
-0.0762023 -0.00420547 0
-0.0762262 -0.00977542 0
-0.0746495 -0.0154261 0
-0.0713467 -0.0207865 0
-0.0662782 -0.0254063 0
-0.0595204 -0.0287925 0
-0.0512927 -0.0304619 0
-0.0419815 -0.0300154 0
-0.0321516 -0.0272394 0
-0.0225286 -0.0222276 0
-0.0139261 -0.0154961 0
-0.00709527 -0.0080251 0
-0.00251034 -0.00113972 0
-0.000169713 0.00379567 0
0.00044423 0.00570897 0
0.00020691 0.00360227 0
-0.000985895 0.00592239 0
-0.00409571 0.0142963 0
-0.00894177 0.019607 0
-0.0146949 0.0227739 0
-0.0209332 0.0246245 0
-0.0274711 0.0257081 0
-0.0342345 0.0263066 0
-0.0411846 0.026506 0
-0.0482771 0.0262701 0
-0.0554405 0.0254972 0
-0.0625658 0.0240599 0
-0.0695031 0.021834 0
-0.0760628 0.01872 0
-0.0820215 0.0146605 0
-0.0871299 0.0096532 0
-0.0911249 0.00376145 0
-0.0937438 -0.00288048 0
-0.0947391 -0.0100813 0
-0.0938807 -0.0175554 0
-0.0909763 -0.0248644 0
-0.0859148 -0.0314582 0
-0.0787 -0.0367132 0
-0.0694853 -0.0399837 0
-0.0586117 -0.0406783 0
-0.0466441 -0.038374 0
-0.0343861 -0.032974 0
-0.0228423 -0.0248959 0
-0.0130771 -0.0152213 0
-0.0059415 -0.00566408 0
-0.00174424 0.00178213 0
-5.61282e-05 0.00542046 0
0.000131398 0.00394057 0
-0.0011332 0.00804148 0
-0.00466997 0.0188237 0
-0.0101314 0.025387 0
-0.0165886 0.0292042 0
-0.0235972 0.0314411 0
-0.0309832 0.0328154 0
-0.0386928 0.0336723 0
-0.0467051 0.0341027 0
-0.0549845 0.0340452 0
-0.0634568 0.0333577 0
-0.0719984 0.0318662 0
-0.0804335 0.0294001 0
-0.088538 0.0258181 0
-0.0960465 0.0210294 0
-0.102664 0.0150101 0
-0.10808 0.00781531 0
-0.111982 -0.000412757 0
-0.114084 -0.00945227 0
-0.114114 -0.0190123 0
-0.111825 -0.0286012 0
-0.107031 -0.037577 0
-0.0996494 -0.0451907 0
-0.0897397 -0.0506307 0
-0.0775528 -0.0530917 0
-0.0635928 -0.0518882 0
-0.0486736 -0.046637 0
-0.0339357 -0.0375147 0
-0.0207554 -0.025548 0
-0.0104585 -0.0127699 0
-0.00383483 -0.00193301 0
-0.000705513 0.00431817 0
3.89238e-05 0.0041109 0
-0.00126151 0.0104362 0
-0.0051705 0.0238748 0
-0.0111736 0.0318005 0
-0.0182638 0.0363382 0
-0.0259848 0.0390367 0
-0.034176 0.040797 0
-0.0428025 0.0420267 0
-0.051856 0.0428141 0
-0.0613038 0.043061 0
-0.071063 0.0425735 0
-0.0809917 0.0411207 0
-0.090888 0.0384772 0
-0.100497 0.034454 0
-0.109518 0.0289233 0
-0.117621 0.0218374 0
-0.124461 0.0132437 0
-0.129692 0.00329267 0
-0.132989 -0.00775945 0
-0.134056 -0.0196079 0
-0.13261 -0.0317413 0
-0.128396 -0.0434443 0
-0.12124 -0.0538608 0
-0.111083 -0.0620276 0
-0.0980411 -0.0669235 0
-0.0824901 -0.0675673 0
-0.0651645 -0.0632027 0
-0.0472441 -0.0536072 0
-0.0303521 -0.0395279 0
-0.0163264 -0.0231126 0
-0.00663162 -0.00790865 0
-0.00158945 0.00212233 0
-8.84858e-05 0.00406133 0
-0.00136166 0.0130594 0
-0.00556561 0.0293646 0
-0.0120087 0.0387569 0
-0.0196294 0.0440928 0
-0.027965 0.0473387 0
-0.0368665 0.0495879 0
-0.0463114 0.0513072 0
-0.0562973 0.052573 0
-0.066788 0.0532405 0
-0.0776891 0.0530543 0
-0.0888411 0.0517204 0
-0.100022 0.0489543 0
-0.110954 0.0445176 0
-0.121318 0.0382448 0
-0.130763 0.0300652 0
-0.138926 0.0200185 0
-0.145441 0.0082638 0
-0.149957 -0.00491764 0
-0.152168 -0.0191717 0
-0.151779 -0.0340137 0
-0.148482 -0.0486821 0
-0.142014 -0.062247 0
-0.132185 -0.0736275 0
-0.11894 -0.0816107 0
-0.102457 -0.0849142 0
-0.0832907 -0.0823474 0
-0.0625346 -0.0731389 0
-0.0419314 -0.0574913 0
-0.0237797 -0.0373266 0
-0.0103624 -0.0168067 0
-0.00281705 -0.0015672 0
-0.000269997 0.00370285 0
-0.00142366 0.0158447 0
-0.00582052 0.0351801 0
-0.0125705 0.0461344 0
-0.0205819 0.0523474 0
-0.0293874 0.0562251 0
-0.0388428 0.0590582 0
-0.0489292 0.0613682 0
-0.0596429 0.0632116 0
-0.0709399 0.0643896 0
-0.0827147 0.0645811 0
-0.0947954 0.0634263 0
-0.106949 0.0605824 0
-0.11889 0.0557631 0
-0.130295 0.0487678 0
-0.140812 0.0395045 0
-0.150075 0.0280055 0
-0.157721 0.0144376 0
-0.1634 -0.0008966 0
-0.166803 -0.0175779 0
-0.167635 -0.0351656 0
-0.165571 -0.0528912 0
-0.160277 -0.0697994 0
-0.151433 -0.0847478 0
-0.138785 -0.096384 0
-0.122255 -0.103154 0
-0.102116 -0.103411 0
-0.0792323 -0.0957153 0
-0.0552924 -0.079458 0
-0.03291 -0.0558942 0
-0.0152158 -0.0293505 0
-0.00450416 -0.0072804 0
-0.000534005 0.00289885 0
-0.00143811 0.0187065 0
-0.00590212 0.0411791 0
-0.0127948 0.053778 0
-0.0210197 0.0609402 0
-0.030103 0.0655211 0
-0.0398953 0.0690099 0
-0.050372 0.0719797 0
-0.0615212 0.074463 0
-0.07329 0.0762041 0
-0.0855648 0.0768162 0
-0.0981693 0.0758764 0
-0.110871 0.0729878 0
-0.123393 0.0678208 0
-0.135422 0.060144 0
-0.146624 0.0498469 0
-0.156655 0.0369568 0
-0.165171 0.0216482 0
-0.171845 0.00424528 0
-0.176379 -0.0147821 0
-0.178504 -0.035004 0
-0.177922 -0.0556993 0
-0.174257 -0.0759493 0
-0.167073 -0.0946262 0
-0.155906 -0.110321 0
-0.140378 -0.121277 0
-0.120391 -0.125414 0
-0.0964293 -0.120558 0
-0.0699294 -0.105055 0
-0.0435973 -0.0790117 0
-0.0213016 -0.0462228 0
-0.00676266 -0.0156588 0
-0.0009102 0.00145464 0
-0.00139794 0.0215425 0
-0.00578474 0.0471939 0
-0.0126303 0.0615014 0
-0.0208599 0.0696712 0
-0.0299892 0.0750026 0
-0.0398523 0.0791839 0
-0.0504095 0.0828396 0
-0.0616359 0.0859787 0
-0.0734701 0.0882914 0
-0.0857957 0.0893293 0
-0.0984412 0.0886132 0
-0.111187 0.0856985 0
-0.123774 0.0802193 0
-0.135919 0.0719195 0
-0.147321 0.0606759 0
-0.157678 0.0465146 0
-0.166691 0.0296194 0
-0.174076 0.0103327 0
-0.179559 -0.0108522 0
-0.182934 -0.0334329 0
-0.183975 -0.0568122 0
-0.182303 -0.0801731 0
-0.177396 -0.102494 0
-0.168597 -0.122419 0
-0.155201 -0.138102 0
-0.136667 -0.14711 0
-0.112963 -0.146528 0
-0.0850617 -0.133486 0
-0.0554896 -0.106484 0
-0.0286112 -0.067924 0
-0.00967998 -0.0274278 0
-0.00142663 -0.000882189 0
-0.00130014 0.0242406 0
-0.00545588 0.0530383 0
-0.0120493 0.069096 0
-0.0200546 0.0783116 0
-0.0289729 0.0844097 0
-0.0386106 0.0892777 0
-0.0489041 0.0935964 0
-0.0598128 0.0973571 0
-0.0712689 0.100203 0
-0.0831592 0.101633 0
-0.095325 0.10112 0
-0.107568 0.0981801 0
-0.119661 0.0924184 0
-0.131358 0.083562 0
-0.142405 0.0714827 0
-0.152554 0.056213 0
-0.161572 0.0379526 0
-0.169252 0.0170642 0
-0.175409 -0.00594354 0
-0.179902 -0.0304731 0
-0.182572 -0.0560619 0
-0.183107 -0.0820608 0
-0.18096 -0.10766 0
-0.175318 -0.131694 0
-0.165159 -0.152381 0
-0.149453 -0.167072 0
-0.127537 -0.172185 0
-0.0997137 -0.163553 0
-0.0680297 -0.137674 0
-0.0369992 -0.0946432 0
-0.0133037 -0.0433354 0
-0.00211141 -0.00442023 0
-0.00114705 0.0266878 0
-0.00492068 0.0585205 0
-0.0110557 0.0763422 0
-0.0186033 0.0866184 0
-0.027047 0.0934649 0
-0.0361559 0.0989692 0
-0.0458356 0.103878 0
-0.0560283 0.108177 0
-0.0666627 0.111474 0
-0.0776354 0.113226 0
-0.0888081 0.112866 0
-0.100013 0.109882 0
-0.111062 0.103858 0
-0.121755 0.0945117 0
-0.131893 0.0817187 0
-0.141296 0.0655288 0
-0.149811 0.0461703 0
-0.157324 0.024039 0
-0.163757 -0.000328136 0
-0.169061 -0.0262916 0
-0.173182 -0.0534522 0
-0.175931 -0.0813868 0
-0.176807 -0.109605 0
-0.174909 -0.137289 0
-0.168944 -0.162909 0
-0.157386 -0.183808 0
-0.138863 -0.195889 0
-0.112822 -0.193712 0
-0.0805198 -0.171501 0
-0.0462005 -0.126166 0
-0.0176532 -0.064055 0
-0.00300719 -0.00953884 0
-0.00094701 0.0287818 0
-0.00420438 0.0634575 0
-0.00968989 0.0830258 0
-0.0165591 0.0943516 0
-0.0242779 0.101894 0
-0.0325709 0.107942 0
-0.0413078 0.113322 0
-0.0504133 0.118031 0
-0.0598169 0.121658 0
-0.069431 0.123629 0
-0.079146 0.123351 0
-0.0888331 0.12029 0
-0.0983497 0.114016 0
-0.107549 0.104246 0
-0.116294 0.0908677 0
-0.12447 0.0739585 0
-0.132005 0.05379 0
-0.138881 0.0308081 0
-0.145135 0.00559019 0
-0.150832 -0.0212095 0
-0.156057 -0.0491869 0
-0.160791 -0.0781696 0
-0.164661 -0.108077 0
-0.166784 -0.138593 0
-0.165686 -0.168668 0
-0.1594 -0.195894 0
-0.145806 -0.21592 0
-0.123351 -0.222177 0
-0.0922022 -0.206488 0
-0.0558683 -0.161833 0
-0.022738 -0.0900658 0
-0.00418304 -0.0167291 0
-0.000714253 0.0304431 0
-0.00335258 0.0676919 0
-0.00802989 0.0889541 0
-0.01403 0.101292 0
-0.0208052 0.109448 0
-0.0280316 0.115908 0
-0.0355401 0.121601 0
-0.043239 0.126556 0
-0.0510627 0.13036 0
-0.0589468 0.132425 0
-0.0668185 0.132142 0
-0.0745961 0.128963 0
-0.082192 0.122455 0
-0.089519 0.112334 0
-0.0965012 0.0985064 0
-0.103089 0.0810832 0
-0.109278 0.0603896 0
-0.115132 0.0369386 0
-0.120787 0.0113687 0
-0.126427 -0.0156513 0
-0.13229 -0.0436565 0
-0.138553 -0.0727036 0
-0.145061 -0.103165 0
-0.15108 -0.135363 0
-0.155113 -0.168963 0
-0.154864 -0.202134 0
-0.14751 -0.230627 0
-0.130399 -0.247036 0
-0.102339 -0.240838 0
-0.0656173 -0.200539 0
-0.0285664 -0.121541 0
-0.00573145 -0.0266436 0
-0.000468078 0.0316254 0
-0.00242946 0.0711093 0
-0.00618876 0.0939734 0
-0.0111747 0.107259 0
-0.0168336 0.115915 0
-0.0227935 0.122627 0
-0.0288465 0.128444 0
-0.0348864 0.133453 0
-0.0408577 0.137259 0
-0.0467255 0.139278 0
-0.0524623 0.138898 0
-0.0580424 0.135566 0
-0.0634418 0.128848 0
-0.0686414 0.118468 0
-0.0736322 0.104346 0
-0.0784263 0.0866255 0
-0.0830733 0.0656838 0
-0.0876846 0.0421095 0
-0.0924582 0.0166264 0
-0.0976825 -0.0100444 0
-0.103712 -0.0373707 0
-0.110901 -0.0655376 0
-0.119383 -0.0953407 0
-0.128733 -0.127817 0
-0.137638 -0.163571 0
-0.14369 -0.201724 0
-0.143489 -0.238592 0
-0.133275 -0.266396 0
-0.110274 -0.272539 0
-0.0750593 -0.240773 0
-0.0351375 -0.158279 0
-0.00775152 -0.0401265 0
-0.000231629 0.0323251 0
-0.00151487 0.0736542 0
-0.00431067 0.0979836 0
-0.00819597 0.11212 0
-0.0126213 0.121138 0
-0.017173 0.127915 0
-0.0216081 0.133644 0
-0.0258098 0.138494 0
-0.0297375 0.142116 0
-0.0333924 0.143944 0
-0.0367982 0.143374 0
-0.0399927 0.139863 0
-0.0430243 0.132981 0
-0.0459511 0.122461 0
-0.0488409 0.108234 0
-0.0517749 0.0904657 0
-0.0548548 0.0695705 0
-0.0582193 0.0461986 0
-0.0620733 0.0211648 0
-0.0667222 -0.00470951 0
-0.0725663 -0.0308316 0
-0.0800848 -0.0573692 0
-0.0896983 -0.0854135 0
-0.101418 -0.116674 0
-0.114377 -0.15285 0
-0.126367 -0.194403 0
-0.133678 -0.238802 0
-0.131539 -0.278539 0
-0.115455 -0.299481 0
-0.0838161 -0.280685 0
-0.0424249 -0.199681 0
-0.010329 -0.0582071 0
-3.08621e-05 0.0325876 0
-0.000701858 0.0753459 0
-0.002567 0.100953 0
-0.00533337 0.115803 0
-0.00846748 0.125015 0
-0.0115271 0.131649 0
-0.014244 0.137061 0
-0.0164979 0.141532 0
-0.0182686 0.144776 0
-0.0195981 0.146267 0
-0.020565 0.145423 0
-0.0212736 0.141717 0
-0.0218494 0.134734 0
-0.0224336 0.124218 0
-0.0231803 0.110113 0
-0.0242522 0.0925928 0
-0.0258175 0.0720885 0
-0.0280496 0.0492773 0
-0.031138 0.0250283 0
-0.0353194 0.000257318 0
-0.0409213 -0.0243524 0
-0.0484152 -0.0488361 0
-0.0583921 -0.0743562 0
-0.0713262 -0.103077 0
-0.0870371 -0.137777 0
-0.103933 -0.18059 0
-0.118418 -0.23082 0
-0.12499 -0.28209 0
-0.117423 -0.319581 0
-0.0914992 -0.318148 0
-0.0503535 -0.244755 0
-0.0135232 -0.0820592 0
0.000104167 0.0325143 0
-9.80604e-05 0.0762925 0
-0.0011553 0.102929 0
-0.00285869 0.118297 0
-0.004701 0.127498 0
-0.00623425 0.13376 0
-0.00718325 0.138617 0
-0.00743652 0.142484 0
-0.0070017 0.145161 0
-0.00596501 0.146176 0
-0.0044603 0.144977 0
-0.00265699 0.141069 0
-0.000756912 0.134058 0
0.00101421 0.123707 0
0.00241393 0.109971 0
0.00319214 0.0930286 0
0.00310178 0.0733083 0
0.00191122 0.0514802 0
-0.000584801 0.0284098 0
-0.00455737 0.00502979 0
-0.0101648 -0.0179156 0
-0.0176719 -0.0402719 0
-0.0276053 -0.0630102 0
-0.0407433 -0.0883512 0
-0.0576767 -0.119859 0
-0.0778488 -0.16144 0
-0.0983973 -0.214935 0
-0.113609 -0.276191 0
-0.115734 -0.330922 0
-0.0976421 -0.350823 0
-0.0587584 -0.292109 0
-0.0173554 -0.112938 0
0.000138399 0.0322718 0
0.000170582 0.0767051 0
-0.000303406 0.104047 0
-0.00107518 0.119653 0
-0.00167228 0.12858 0
-0.00167595 0.134214 0
-0.000835413 0.138271 0
0.00093291 0.141314 0
0.0035852 0.143243 0
0.00698947 0.143652 0
0.0109506 0.142035 0
0.0152273 0.137931 0
0.0195429 0.13098 0
0.0235919 0.120965 0
0.0270495 0.107855 0
0.0295841 0.0918312 0
0.0308745 0.0733056 0
0.0306343 0.0529138 0
0.0286417 0.0314649 0
0.0247681 0.00982084 0
0.0189722 -0.0113034 0
0.0112357 -0.0316405 0
0.00132621 -0.0517988 0
-0.0114888 -0.0736095 0
-0.0283098 -0.100847 0
-0.0498039 -0.138787 0
-0.0745518 -0.192292 0
-0.0974763 -0.260697 0
-0.109854 -0.331912 0
-0.101573 -0.376205 0
-0.0672975 -0.339886 0
-0.021784 -0.152077 0
2.94503e-05 0.0321039 0
-4.93574e-05 0.0769195 0
-0.000281428 0.104539 0
-0.000322658 0.119975 0
0.000254021 0.128279 0
0.00178758 0.132985 0
0.00445362 0.135994 0
0.00826947 0.138008 0
0.0131367 0.13903 0
0.0188701 0.138728 0
0.0252162 0.136652 0
0.031869 0.132384 0
0.0384841 0.125597 0
0.0446863 0.116098 0
0.0500821 0.103869 0
0.0542755 0.089089 0
0.0568916 0.0721413 0
0.0576067 0.0536033 0
0.0561843 0.0341905 0
0.0525043 0.0146488 0
0.0465712 -0.0044023 0
0.0384741 -0.0227078 0
0.0282396 -0.0405876 0
0.0156031 -0.0593692 0
-0.000406905 -0.082256 0
-0.0214131 -0.114877 0
-0.0479404 -0.164927 0
-0.0766817 -0.236397 0
-0.0990126 -0.321504 0
-0.102222 -0.391685 0
-0.0752904 -0.385613 0
-0.0266466 -0.200508 0
-0.000294217 0.0323687 0
-0.000980625 0.07742 0
-0.00143334 0.104723 0
-0.000990527 0.119389 0
0.00069893 0.126599 0
0.00380418 0.130026 0
0.00835397 0.131737 0
0.0142575 0.132546 0
0.021339 0.132543 0
0.0293526 0.131467 0
0.037991 0.128928 0
0.046895 0.124551 0
0.055666 0.118044 0
0.0638764 0.109238 0
0.0710841 0.0981255 0
0.0768523 0.0848711 0
0.0807765 0.0698188 0
0.0825172 0.05347 0
0.0818342 0.0364292 0
0.0786126 0.0193116 0
0.0728643 0.00261631 0
0.0646904 -0.0134554 0
0.0542059 -0.029121 0
0.0413874 -0.0453808 0
0.0258019 -0.0646489 0
0.00619111 -0.0918671 0
-0.0195778 -0.13564 0
-0.051277 -0.205243 0
-0.0820857 -0.299518 0
-0.0978688 -0.394678 0
-0.0814536 -0.425966 0
-0.0315489 -0.258703 0
-0.000962958 0.0336259 0
-0.00297912 0.0788654 0
-0.00422765 0.104979 0
-0.00354026 0.118003 0
-0.000734828 0.12349 0
0.00405129 0.125244 0
0.0106031 0.125417 0
0.0186741 0.12489 0
0.0279899 0.123802 0
0.0382422 0.121943 0
0.0490786 0.118978 0
0.0601027 0.114574 0
0.0708812 0.108472 0
0.0809559 0.100525 0
0.0898598 0.090727 0
0.0971401 0.0792211 0
0.102386 0.066299 0
0.105259 0.0523756 0
0.105528 0.0379381 0
0.103082 0.0234697 0
0.0979381 0.0093507 0
0.0901935 -0.00427144 0
0.0799746 -0.0176015 0
0.067341 -0.0314482 0
0.0521021 -0.0477571 0
0.0335253 -0.0705714 0
0.0099031 -0.107545 0
-0.0212328 -0.170504 0
-0.0575388 -0.267144 0
-0.0858649 -0.382944 0
-0.083499 -0.456482 0
-0.0356697 -0.325922 0
-0.00221904 0.0368079 0
-0.0066217 0.0821022 0
-0.00928521 0.105654 0
-0.00845386 0.115809 0
-0.00436015 0.118785 0
0.00235655 0.118446 0
0.0111298 0.11689 0
0.0215116 0.114965 0
0.033121 0.112802 0
0.045596 0.110216 0
0.0585561 0.106909 0
0.0715885 0.102587 0
0.0842492 0.0970197 0
0.0960743 0.0900773 0
0.106598 0.0817474 0
0.115375 0.0721433 0
0.12201 0.0614958 0
0.126187 0.0501286 0
0.12769 0.0384133 0
0.126423 0.0267068 0
0.122406 0.0152751 0
0.115751 0.00420367 0
0.106608 -0.00671379 0
0.0950435 -0.0181382 0
0.0809189 -0.0317036 0
0.063703 -0.050832 0
0.0421256 -0.0820848 0
0.0138186 -0.136521 0
-0.0234576 -0.227544 0
-0.0623983 -0.355276 0
-0.0775688 -0.471345 0
-0.0374327 -0.399024 0
-0.00449677 0.0435237 0
-0.0127765 0.0880688 0
-0.0172586 0.106833 0
-0.0159489 0.112489 0
-0.0100131 0.112076 0
-0.000851048 0.109277 0
0.0105333 0.105902 0
0.0234808 0.102624 0
0.0375246 0.0994897 0
0.0522757 0.0963017 0
0.0673537 0.0927844 0
0.0823574 0.0886747 0
0.0968607 0.0837676 0
0.110422 0.0779427 0
0.122604 0.0711764 0
0.132997 0.0635445 0
0.141243 0.0552126 0
0.147066 0.0464126 0
0.150286 0.0374063 0
0.15083 0.0284359 0
0.148729 0.0196645 0
0.144092 0.0111065 0
0.137073 0.00254609 0
0.127796 -0.00655746 0
0.116122 -0.0174857 0
0.101492 -0.0332037 0
0.0827266 -0.0593707 0
0.0575342 -0.105735 0
0.0226088 -0.186128 0
-0.0224182 -0.312725 0
-0.0575249 -0.463619 0
-0.033977 -0.470434 0
-0.00842147 0.0564419 0
-0.0222491 0.0972579 0
-0.0278606 0.107738 0
-0.0245792 0.106993 0
-0.0153903 0.102447 0
-0.00269162 0.097045 0
0.0120873 0.0919703 0
0.0281496 0.0875453 0
0.045013 0.0836607 0
0.0623178 0.0800747 0
0.0797289 0.0765222 0
0.0968963 0.0727657 0
0.113448 0.0686218 0
0.128999 0.0639758 0
0.143172 0.0587882 0
0.155619 0.0530936 0
0.166045 0.0469911 0
0.17423 0.0406258 0
0.180043 0.0341603 0
0.183442 0.0277385 0
0.184464 0.0214413 0