# vtk DataFile Version 2.0
Lid-driven cavity
ASCII
DATASET STRUCTURED_POINTS
DIMENSIONS 32 32 1
ORIGIN 0.015625 0.015625 0
SPACING 0.03125 0.03125 1
POINT_DATA 1024
SCALARS pressure double 1
LOOKUP_TABLE default
4.94055
4.92313
4.90878
4.90657
4.91953
4.94802
4.99168
5.05024
5.1237
5.21225
5.31607
5.43502
5.56849
5.71511
5.87268
6.03801
6.20707
6.37483
6.53563
6.68348
6.81272
6.91883
6.99901
7.05264
7.08133
7.08858
7.07928
7.05901
7.03348
7.00843
6.98951
6.98176
4.95798
4.94
4.93036
4.93269
4.94858
4.97838
5.0221
5.07977
5.15159
5.2378
5.33855
5.45372
5.5827
5.72421
5.87611
6.03541
6.19829
6.36
6.51514
6.65795
6.78302
6.88603
6.96439
7.01765
7.04751
7.05743
7.05212
7.03683
7.01669
6.99662
6.98112
6.974
4.97196
4.94771
4.93803
4.9423
4.95997
4.99064
5.03416
5.09069
5.16057
5.2442
5.3419
5.45372
5.57925
5.71741
5.86628
6.02302
6.18395
6.34431
6.49865
6.64102
6.76577
6.86836
6.94607
6.99844
7.0274
7.03679
7.0315
7.01686
6.99786
6.97885
6.96356
6.95497
4.96958
4.93835
4.92678
4.93132
4.94962
4.98039
5.02319
5.07814
5.14574
5.2266
5.32131
5.43021
5.55322
5.68963
5.83784
5.99516
6.15786
6.32104
6.47892
6.62507
6.75326
6.85835
6.93715
6.98902
7.01605
7.02264
7.01444
6.99714
6.97597
6.95512
6.93797
6.9271
4.94183
4.90436
4.89046
4.89439
4.91242
4.94254
4.984
5.03691
5.10191
5.17986
5.27165
5.37802
5.49931
5.63526
5.78478
5.94545
6.1132
6.28295
6.44847
6.60265
6.73839
6.84957
6.9321
6.98484
7.00991
7.01231
6.99873
6.97607
6.94998
6.92495
6.90441
6.89106
4.8817
4.83897
4.82283
4.82574
4.8429
4.87173
4.91132
4.96177
5.02386
5.09869
5.18752
5.29147
5.41139
5.54757
5.69952
5.86549
6.04085
6.2204
6.39748
6.56425
6.71248
6.83463
6.92514
6.98175
7.00619
7.00401
6.98325
6.95245
6.91878
6.88731
6.86186
6.84564
4.78327
4.73612
4.71797
4.71968
4.73553
4.76259
4.79979
4.8473
4.90601
4.97726
5.06259
5.16354
5.28147
5.41727
5.57123
5.74268
5.92688
6.11843
6.31055
6.49485
6.66181
6.80194
6.90741
6.97382
7.00158
6.99626
6.96739
6.92593
6.8815
6.84075
6.80828
6.78812
4.64129
4.59039
4.57041
4.57073
4.58489
4.60964
4.64383
4.68763
4.74203
4.80849
4.88879
4.98479
5.09834
5.23103
5.38404
5.55791
5.74967
5.95332
6.16275
6.36947
6.5628
6.73087
6.8625
6.94959
6.98947
6.98631
6.95062
6.89647
6.83743
6.78341
6.74079
6.71457
4.45103
4.39686
4.3751
4.37376
4.38568
4.40733
4.43746
4.47617
4.5244
4.5836
4.6556
4.74248
4.84651
4.97003
5.11533
5.28436
5.47768
5.6896
5.91565
6.14839
6.37655
6.58573
6.76026
6.88621
6.95497
6.96647
6.93034
6.86372
6.78606
6.71329
6.65557
6.61971
4.20825
4.15119
4.12753
4.12398
4.13275
4.15001
4.1743
4.2055
4.2443
4.29187
4.34984
4.42028
4.50578
4.60952
4.73522
4.88688
5.0683
5.27834
5.51493
5.77364
6.04409
6.30984
6.5499
6.74207
6.86789
6.91831
6.89783
6.82476
6.7259
6.62733
6.54722
6.4966
3.90934
3.84968
3.82376
3.81711
3.82131
3.83216
3.84782
3.86772
3.89197
3.9211
3.95616
3.99887
4.05199
4.11958
4.20716
4.32156
4.47018
4.65891
4.89111
5.16871
5.48468
5.8221
6.15469
6.44991
6.6749
6.80492
6.83199
6.77015
6.65286
6.52128
6.40908
6.33602
3.5515
3.48949
3.46072
3.44966
3.44726
3.44881
3.45189
3.45514
3.45765
3.45883
3.45862
3.45796
3.45946
3.46807
3.49155
3.54044
3.62723
3.76463
3.96534
4.24375
4.59977
5.01898
5.47142
5.91336
6.29343
6.5633
6.69181
6.67819
6.55708
6.38822
6.23178
6.12548
3.13299
3.06882
3.03642
3.01926
3.00766
2.99624
2.98171
2.96151
2.93318
2.8944
2.84337
2.77963
2.70523
2.62588
2.55191
2.49849
2.4848
2.5318
2.66083
2.90759
3.2846
3.78468
4.37778
5.01059
5.61102
6.09977
6.40944
6.50816
6.4185
6.21683
6.0024
5.84851
2.65336
2.58726
2.55031
2.52515
2.50139
2.47282
2.43495
2.38353
2.31403
2.22165
2.10212
1.95286
1.77476
1.57398
1.36353
1.16398
1.00275
0.911415
0.921188
1.08649
1.44784
2.01044
2.74991
3.60804
4.49368
5.29222
5.88719
6.1946
6.20182
5.9893
5.70516
5.48473
2.11371
2.0459
2.00353
1.96851
1.9297
1.87985
1.81292
1.72255
1.60149
1.44181
1.23593
0.97838
0.668115
0.311198
-0.0768465
-0.469646
-0.8304
-1.1148
-1.27696
-1.25473
-0.963689
-0.378673
0.489227
1.58515
2.80573
4.00275
5.00217
5.64556
5.85232
5.67875
5.32094
5.00973
1.5167
1.44745
1.39905
1.35277
1.29665
1.22221
1.12156
0.985801
0.80445
0.565805
0.25827
-0.127391
-0.594971
-1.1393
-1.74291
-2.37377
-2.98509
-3.51818
-3.90902
-4.08982
-3.93934
-3.39458
-2.44549
-1.13285
0.440254
2.10211
3.62164
4.74846
5.2953
5.2476
4.82805
4.39554
0.866436
0.796088
0.741536
0.683547
0.60923
0.508663
0.371876
0.187119
-0.0597013
-0.384532
-0.803568
-1.3305
-1.97274
-2.72695
-3.57468
-4.47903
-5.38358
-6.21484
-6.88915
-7.32353
-7.38732
-6.96296
-6.00902
-4.54093
-2.6448
-0.496437
1.62981
3.38636
4.44261
4.6496
4.20549
3.61603
0.168047
0.0969664
0.0369605
-0.0316782
-0.122939
-0.248384
-0.420261
-0.653335
-0.965477
-1.37709
-1.90929
-2.58067
-3.40296
-4.37563
-5.48051
-6.67726
-7.90122
-9.06516
-10.0661
-10.7982
-11.1326
-10.9149
-10.0536
-8.52959
-6.39408
-3.80037
-1.03718
1.46504
3.20903
3.83899
3.44183
2.65839
-0.573036
-0.644476
-0.708147
-0.78429
-0.888304
-1.03367
-1.23508
-1.51032
-1.88101
-2.3719
-3.00894
-3.81577
-4.80879
-5.99114
-7.34625
-8.83226
-10.3787
-11.887
-13.237
-14.2993
-14.9398
-14.9985
-14.3346
-12.8799
-10.6375
-7.70908
-4.35602
-1.05293
1.5389
2.78998
2.55459
1.54785
-1.35209
-1.42358
-1.48773
-1.56555
-1.67444
-1.83027
-2.05039
-2.35558
-2.77089
-3.325
-4.04826
-4.96896
-6.10815
-7.47306
-9.05001
-10.7978
-12.6432
-14.4803
-16.1758
-17.5806
-18.5461
-18.9178
-18.5411
-17.2854
-15.0978
-12.0047
-8.19186
-4.11555
-0.561249
1.52616
1.62246
0.387975
-2.16642
-2.23784
-2.2975
-2.36781
-2.46927
-2.62103
-2.84347
-3.16031
-3.59959
-4.19322
-4.97503
-5.97712
-7.22457
-8.72871
-10.4796
-12.4389
-14.534
-16.6566
-18.6657
-20.399
-21.6904
-22.387
-22.3434
-21.3979
-19.4271
-16.3709
-12.2965
-7.562
-2.9939
0.153209
0.825765
-0.586987
-3.01707
-3.08854
-3.13642
-3.18581
-3.26231
-3.38991
-3.59279
-3.89764
-4.33492
-4.93878
-5.74525
-6.78892
-8.09767
-9.68633
-11.5491
-13.6519
-15.9264
-18.2667
-20.5313
-22.552
-24.1499
-25.1645
-25.4596
-24.8887
-23.265
-20.4403
-16.3356
-11.1275
-5.5579
-1.11682
0.485456
-0.954893
-3.91112
-3.98298
-4.00842
-4.01792
-4.04569
-4.12315
-4.27956
-4.54475
-4.95093
-5.53318
-6.32813
-7.37116
-8.69175
-10.3071
-12.2146
-14.3852
-16.7564
-19.2296
-21.6699
-23.9128
-25.7757
-27.0848
-27.7024
-27.5043
-26.3029
-23.8583
-19.9415
-14.4765
-7.96133
-1.96139
1.08954
-0.04902
-4.86504
-4.93753
-4.92449
-4.86728
-4.81477
-4.80984
-4.88865
-5.08433
-5.43004
-5.96061
-6.71206
-7.71914
-9.01094
-10.605
-12.5003
-14.6708
-17.0597
-19.5762
-22.0965
-24.4683
-26.5208
-28.0791
-28.9894
-29.1214
-28.3319
-26.3432
-22.7748
-17.2534
-9.85778
-1.96806
3.30161
3.10036
-5.91063
-5.98257
-5.90541
-5.74273
-5.56826
-5.44196
-5.40884
-5.50486
-5.76293
-6.21615
-6.8983
-7.84183
-9.07386
-10.6106
-12.4511
-14.5707
-16.9168
-19.4058
-21.9241
-24.3338
-26.4805
-28.2033
-29.3473
-29.7615
-29.2952
-27.7243
-24.5685
-19.1264
-10.8836
-0.666445
7.95741
9.84137
-7.10645
-7.17125
-6.98573
-6.65944
-6.30747
-6.01355
-5.83218
-5.80024
-5.94791
-6.30438
-6.89931
-7.76133
-8.91422
-10.3717
-12.1315
-14.1696
-16.4359
-18.8524
-21.3144
-23.6957
-25.8563
-27.6511
-28.9354
-29.5548
-29.3258
-28.009
-25.1319
-19.783
-10.6467
2.47336
16.0769
22.0263
-8.56299
-8.59606
-8.21921
-7.63795
-7.03363
-6.51851
-6.15299
-5.96966
-5.99135
-6.24018
-6.73964
-7.51312
-8.58012
-9.95107
-11.6217
-13.5676
-15.7406
-18.0666
-20.4476
-22.7656
-24.8903
-26.6861
-28.018
-28.7354
-28.6339
-27.4026
-24.5086
-18.8561
-8.59856
8.17084
28.9578
42.2434
-10.5037
-10.4209
-9.68339
-8.69682
-7.73884
-6.94352
-6.36281
-6.0136
-5.90389
-6.04467
-6.45115
-7.14044
-8.12716
-9.41812
-11.0067
-12.8676
-14.9536
-17.1935
-19.4936
-21.7414
-23.8106
-25.5678
-26.8749
-27.5865
-27.4789
-26.1543
-22.8877
-16.2575
-3.74927
17.7399
48.4849
74.2075
-13.4288
-12.9351
-11.4645
-9.81875
-8.37474
-7.24304
-6.43041
-5.91637
-5.68431
-5.72979
-6.05794
-6.67898
-7.60254
-8.83175
-10.3575
-12.1533
-14.1723
-16.3448
-18.5799
-20.7674
-22.7816
-24.4845
-25.7245
-26.3287
-26.0755
-24.4434
-20.3808
-11.92
4.52999
33.7558
77.8843
123.185
-18.5824
-16.5676
-13.52
-10.8101
-8.74353
-7.25621
-6.23159
-5.58352
-5.26294
-5.2468
-5.52934
-6.11374
-7.00475
-8.20195
-9.69374
-11.4524
-13.4305
-15.5593
-17.7491
-19.8902
-21.8547
-23.496
-24.6415
-25.0748
-24.4947
-22.3127
-16.9013
-5.42307
17.2187
58.4384
123.898
195.328
-29.1324
-21.2128
-14.9369
-10.7863
-8.10565
-6.38147
-5.28671
-4.63885
-4.3455
-4.36515
-4.68386
-5.30079
-6.21835
-7.43447
-8.93641
-10.6958
-12.6655
-14.7773
-16.9421
-19.0499
-20.9691
-22.542
-23.5695
-23.7762
-22.7353
-19.6554
-12.2327
3.48082
34.6327
93.2397
196.808
342.084
-57.9325
-21.525
-10.1436
-6.00347
-4.12876
-3.14263
-2.6156
-2.39563
-2.42889
-2.70248
-3.22166
-3.99824
-5.0429
-6.35908
-7.93791
-9.75406
-11.7629
-13.8988
-16.0743
-18.1799
-20.0811
-21.6101
-22.5419
-22.54
-21.0305
-16.8658
-7.33374
12.3361
50.9774
125.925
278.493
623.231
VECTORS velocity double
4.03755e-05 -4.03756e-05 0
3.09306e-05 4.98202e-05 0
-0.000170089 0.000151199 0
-0.000542496 0.000221208 0
-0.00102475 0.000261046 0
-0.00156772 0.000281921 0
-0.00214232 0.00029268 0
-0.00273225 0.000297244 0
-0.0033251 0.000295611 0
-0.00390627 0.00028556 0
-0.00445585 0.000264022 0
-0.00494788 0.000228006 0
-0.00535112 0.000175232 0
-0.00563103 0.00010468 0
-0.0057528 1.70894e-05 0
-0.00568501 -8.48805e-05 0
-0.00540418 -0.000195952 0
-0.0049003 -0.000307928 0
-0.00418204 -0.000410329 0
-0.00328055 -0.000491163 0
-0.00225097 -0.000538419 0
-0.00117027 -0.000542281 0
-0.000130266 -0.000497724 0
0.000774374 -0.000406916 0
0.00146115 -0.000279857 0
0.00187351 -0.00013251 0
0.00199054 1.54834e-05 0
0.00183046 0.000144591 0
0.00144723 0.000238646 0
0.000930468 0.000278112 0
0.000416098 0.000236258 0
8.99196e-05 8.99194e-05 0
-5.89786e-05 -2.17726e-05 0
-0.000402197 0.00038388 0
-0.00117849 0.00079445 0
-0.00231045 0.00108232 0
-0.00368026 0.001252 0
-0.0051881 0.00134177 0
-0.0067636 0.00138294 0
-0.00835666 0.00138997 0
-0.00992419 0.00136328 0
-0.0114203 0.0012952 0
-0.0127914 0.00117509 0
-0.0139754 0.000992912 0
-0.0149036 0.000741747 0
-0.0155053 0.000419811 0
-0.0157139 3.23088e-05 0
-0.0154745 -0.000407317 0
-0.0147524 -0.000876364 0
-0.0135408 -0.00134304 0
-0.0118666 -0.00176767 0
-0.00979675 -0.00210516 0
-0.00744073 -0.00231002 0
-0.00494826 -0.00234385 0
-0.00249991 -0.0021845 0
-0.000289693 -0.001835 0
0.00150064 -0.00132889 0
0.00273239 -0.000727594 0
0.00333516 -0.000109233 0
0.00332133 0.000443218 0
0.00278805 0.00085653 0
0.00191192 0.00105312 0
0.000949472 0.000938068 0
0.000241961 0.000421799 0
-0.000208226 0.000245432 0
-0.000997604 0.00124927 0
-0.00244322 0.00215097 0
-0.00436089 0.00277544 0
-0.00657888 0.00314669 0
-0.00896394 0.00333997 0
-0.0114189 0.00341521 0
-0.0138685 0.00340035 0
-0.0162449 0.00329687 0
-0.0184783 0.00309112 0
-0.0204923 0.0027643 0
-0.0222042 0.00229948 0
-0.0235274 0.00168656 0
-0.0243767 0.000926034 0
-0.0246746 3.25978e-05 0
-0.0243603 -0.000961361 0
-0.0233973 -0.00200734 0
-0.0217789 -0.00304205 0
-0.0195349 -0.00398693 0
-0.0167389 -0.00475176 0
-0.0135149 -0.00524335 0
-0.0100389 -0.00537908 0
-0.00653205 -0.00510443 0
-0.00324574 -0.0044116 0
-0.000433714 -0.00335464 0
0.00168603 -0.00205333 0
0.00297641 -0.000676647 0
0.00341323 0.00058765 0
0.0030963 0.0015623 0
0.00223972 0.00208006 0
0.00116298 0.00195031 0
0.000308143 0.000971903 0
-0.000366312 0.00081997 0
-0.0016278 0.0027256 0
-0.00376672 0.00425917 0
-0.00646543 0.00528362 0
-0.00949072 0.00588179 0
-0.0126808 0.00618003 0
-0.0159212 0.00627046 0
-0.0191216 0.00619511 0
-0.0222003 0.00595729 0
-0.0250752 0.005539 0
-0.0276604 0.00491558 0
-0.0298662 0.00406583 0
-0.0316016 0.00297889 0
-0.0327782 0.00165958 0
-0.0333146 0.000133389 0
-0.0331433 -0.00154776 0
-0.0322164 -0.00331085 0
-0.0305098 -0.00506353 0
-0.0280313 -0.00668802 0
-0.0248335 -0.00804451 0
-0.0210256 -0.00898241 0
-0.0167819 -0.00935983 0
-0.0123421 -0.00907026 0
-0.00800047 -0.00807372 0
-0.00407898 -0.00642604 0
-0.000884429 -0.00429623 0
0.00134843 -0.00195699 0
0.00252019 0.000259407 0
0.00270338 0.00202428 0
0.00212815 0.00304989 0
0.0011607 0.00302468 0
0.00031651 0.00159656 0
-0.000521158 0.00170744 0
-0.00224559 0.00482405 0
-0.00506015 0.00711419 0
-0.00850838 0.00857555 0
-0.012294 0.00940081 0
-0.0162306 0.00978769 0
-0.020194 0.00986652 0
-0.0240897 0.00969518 0
-0.0278342 0.00928043 0
-0.0313456 0.0086022 0
-0.0345403 0.0076322 0
-0.0373316 0.00634623 0
-0.0396299 0.00473232 0
-0.0413444 0.00279722 0
-0.0423848 0.000572561 0
-0.0426645 -0.0018786 0
-0.0421046 -0.00446673 0
-0.0406407 -0.00707821 0
-0.038234 -0.00955855 0
-0.0348914 -0.0117144 0
-0.0306848 -0.0133269 0
-0.025768 -0.0141759 0
-0.0203851 -0.0140769 0
-0.0148676 -0.0129262 0
-0.00961231 -0.0107503 0
-0.00503505 -0.00774382 0
-0.00149894 -0.00427835 0
0.000769357 -0.000859296 0
0.00176188 0.00196728 0
0.00170844 0.00373556 0
0.001025 0.00398989 0
0.00029373 0.0022068 0
-0.000668996 0.00289759 0
-0.00283308 0.00752242 0
-0.0062856 0.0106829 0
-0.0104385 0.012608 0
-0.0149384 0.0136539 0
-0.0195806 0.0141134 0
-0.0242402 0.0141638 0
-0.028829 0.0138825 0
-0.0332734 0.013282 0
-0.0375028 0.0123414 0
-0.0414437 0.0110285 0
-0.0450157 0.00931311 0
-0.0481282 0.00717635 0
-0.0506791 0.0046186 0
-0.0525546 0.00166707 0
-0.0536319 -0.00161623 0
-0.0537824 -0.00513842 0
-0.0528808 -0.00877201 0
-0.0508238 -0.0123285 0
-0.0475548 -0.0155561 0
-0.0430916 -0.0181549 0
-0.0375508 -0.0198055 0
-0.0311661 -0.0202149 0
-0.0242958 -0.0191761 0
-0.0174113 -0.0166402 0
-0.0110556 -0.0127868 0
-0.00576162 -0.00806547 0
-0.00193389 -0.00316821 0
0.000269013 0.00108078 0
0.00102297 0.00392155 0
0.000795732 0.00471458 0
0.000254291 0.00275482 0
-0.000807983 0.00437457 0
-0.003382 0.0107835 0
-0.00742649 0.0149188 0
-0.0122358 0.0173343 0
-0.0174102 0.0186019 0
-0.0227365 0.0191338 0
-0.0280983 0.0191648 0
-0.0334245 0.0187965 0
-0.0386607 0.0180486 0
-0.0437544 0.0168979 0
-0.0486445 0.015303 0
-0.0532529 0.013219 0
-0.0574781 0.0106082 0
-0.0611915 0.00745104 0
-0.0642377 0.00375625 0
-0.066438 -0.000427805 0
-0.0676025 -0.00501189 0
-0.0675401 -0.00986248 0
-0.0660746 -0.0147606 0
-0.0630763 -0.0193914 0
-0.0584967 -0.0233623 0
-0.0523996 -0.026236 0
-0.0449878 -0.027581 0
-0.0366241 -0.027044 0
-0.0278369 -0.0244439 0
-0.0192953 -0.0198804 0
-0.0117324 -0.0138288 0
-0.00580151 -0.00716344 0
-0.00188819 -0.00104021 0
4.54506e-05 0.00335494 0
0.000479855 0.00507403 0
0.00020378 0.00321289 0
-0.000936194 0.00611875 0
-0.00388559 0.0145628 0
-0.00847158 0.01977 0
-0.0138886 0.0227094 0
-0.0197044 0.024217 0
-0.0257073 0.0248478 0
-0.0317996 0.0249049 0
-0.037935 0.0245179 0
-0.0440842 0.0237126 0
-0.0502141 0.0224574 0
-0.0562714 0.0206909 0
-0.0621705 0.0183387 0
-0.0677846 0.0153279 0
-0.0729425 0.0116028 0
-0.0774326 0.00714073 0
-0.0810124 0.00196786 0
-0.0834254 -0.00383008 0
-0.0844178 -0.0101143 0
-0.0837475 -0.0166446 0
-0.0812109 -0.0230422 0
-0.0766862 -0.0288158 0
-0.0701682 -0.0333976 0
-0.0618036 -0.0361957 0
-0.0519252 -0.0366714 0
-0.0410798 -0.0344492 0
-0.0300327 -0.0294638 0
-0.0197179 -0.0221231 0
-0.011093 -0.013425 0
-0.00488443 -0.00490051 0
-0.00131056 0.00170772 0
5.64546e-05 0.00491983 0
0.000141474 0.00355814 0
-0.00105078 0.00810572 0
-0.00433461 0.018809 0
-0.00940571 0.0251809 0
-0.0153788 0.0286888 0
-0.0218026 0.0304772 0
-0.0284771 0.0312651 0
-0.0353303 0.0314331 0
-0.042345 0.0311399 0
-0.0495176 0.0304124 0
-0.0568294 0.0291992 0
-0.064226 0.0274031 0
-0.0716021 0.0249017 0
-0.0787931 0.0215699 0
-0.0855763 0.0173018 0
-0.0916795 0.0120348 0
-0.0967965 0.00577061 0
-0.100607 -0.00140916 0
-0.102806 -0.00934434 0
-0.103101 -0.0177899 0
-0.101223 -0.0263109 0
-0.0969753 -0.0343198 0
-0.0902695 -0.0411174 0
-0.0811687 -0.0459413 0
-0.0699327 -0.0480401 0
-0.0570708 -0.0467879 0
-0.0433846 -0.0418584 0
-0.0299677 -0.0334602 0
-0.0180977 -0.0225829 0
-0.0089521 -0.0110968 0
-0.00317181 -0.00145019 0
-0.00051575 0.00405466 0
6.14605e-05 0.00376108 0
-0.00114754 0.010304 0
-0.00471516 0.0234622 0
-0.0102045 0.0310882 0
-0.0166721 0.0352222 0
-0.0236597 0.0373551 0
-0.030986 0.038388 0
-0.0386072 0.0387846 0
-0.046535 0.0387309 0
-0.0547859 0.0382448 0
-0.0633474 0.0372401 0
-0.0721534 0.0355649 0
-0.0810696 0.0330322 0
-0.0898891 0.0294501 0
-0.0983386 0.0246544 0
-0.106092 0.0185393 0
-0.112792 0.0110831 0
-0.11807 0.00236629 0
-0.121571 -0.00742028 0
-0.122969 -0.0180203 0
-0.121955 -0.0289717 0
-0.118258 -0.0396039 0
-0.1117 -0.0490977 0
-0.102234 -0.0565273 0
-0.0900045 -0.0609198 0
-0.0754159 -0.0613587 0
-0.0592221 -0.0571675 0
-0.0425904 -0.0481997 0
-0.0270729 -0.0352309 0
-0.0143589 -0.0203083 0
-0.0057122 -0.00666566 0
-0.00130735 0.00220923 0
-5.02921e-05 0.00377224 0
-0.00122092 0.0126725 0
-0.00500828 0.0284487 0
-0.0108329 0.0374156 0
-0.0177153 0.0422448 0
-0.0251993 0.0448041 0
-0.033124 0.0461899 0
-0.0414722 0.0469521 0
-0.0502782 0.0472972 0
-0.0595701 0.0472214 0
-0.0693319 0.0465868 0
-0.0794786 0.0451709 0
-0.089845 0.0427088 0
-0.100187 0.0389349 0
-0.110192 0.0336242 0
-0.119498 0.0266289 0
-0.127711 0.0179067 0
-0.134431 0.00753979 0
-0.139267 -0.0042572 0
-0.141872 -0.0171789 0
-0.141919 -0.030781 0
-0.139077 -0.0443332 0
-0.133081 -0.0569228 0
-0.123762 -0.0674869 0
-0.111105 -0.0748465 0
-0.0953443 -0.0777816 0
-0.0770861 -0.0751967 0
-0.0574507 -0.0664375 0
-0.0381529 -0.0518083 0
-0.0213702 -0.0332276 0
-0.0091598 -0.0146035 0
-0.00242167 -0.000995919 0
-0.000211646 0.00351031 0
-0.0012644 0.0151578 0
-0.00519125 0.0336776 0
-0.0112473 0.0440673 0
-0.0184395 0.0496677 0
-0.0263183 0.052744 0
-0.0347403 0.0545967 0
-0.0437074 0.0558606 0
-0.0532671 0.0567543 0
-0.0634494 0.0572386 0
-0.0742278 0.0571097 0
-0.085497 0.0560638 0
-0.0970669 0.0537523 0
-0.108669 0.0498352 0
-0.119969 0.0440294 0
-0.130588 0.0361486 0
-0.14012 0.0261324 0
-0.148151 0.0140648 0
-0.154279 0.000180892 0
-0.158143 -0.0151469 0
-0.159406 -0.0315036 0
-0.157718 -0.0481396 0
-0.15274 -0.0640902 0
-0.144177 -0.0782025 0
-0.131829 -0.0891356 0
-0.115695 -0.095387 0
-0.0961342 -0.0954106 0
-0.0740759 -0.0879172 0
-0.0512323 -0.07247 0
-0.0301451 -0.050436 0
-0.0137334 -0.0260171 0
-0.00397888 -0.006075 0
-0.000449087 0.00284957 0
-0.00127142 0.0176936 0
-0.00524067 0.0390379 0
-0.0114015 0.0509239 0
-0.0187693 0.0573712 0
-0.0269018 0.0610518 0
-0.0356649 0.063474 0
-0.0450689 0.0653544 0
-0.0551633 0.0669147 0
-0.0659722 0.0680695 0
-0.0774556 0.0685407 0
-0.0894927 0.0679391 0
-0.10188 0.0658341 0
-0.114341 0.0618162 0
-0.126542 0.0555497 0
-0.138109 0.0468143 0
-0.148644 0.0355339 0
-0.157744 0.0217942 0
-0.165015 0.00584958 0
-0.170088 -0.0118785 0
-0.172644 -0.0309519 0
-0.172357 -0.0506668 0
-0.168838 -0.0700595 0
-0.16168 -0.0879547 0
-0.150488 -0.102924 0
-0.134976 -0.113243 0
-0.11516 -0.116932 0
-0.0916283 -0.111986 0
-0.0658903 -0.096983 0
-0.0406416 -0.0722589 0
-0.0195888 -0.0416586 0
-0.00610565 -0.0136713 0
-0.000795049 0.00160544 0
-0.00123665 0.0202017 0
-0.00513682 0.0443992 0
-0.0112549 0.0578413 0
-0.0186363 0.065203 0
-0.026843 0.0695592 0
-0.0357391 0.0726259 0
-0.0453303 0.0751977 0
-0.0556581 0.0774936 0
-0.0667351 0.0793764 0
-0.0785097 0.0804919 0
-0.0908536 0.0803689 0
-0.103564 0.0785016 0
-0.116373 0.0744191 0
-0.128966 0.067741 0
-0.140995 0.0582187 0
-0.152093 0.0457631 0
-0.16189 0.0304619 0
-0.170023 0.0125854 0
-0.176146 -0.00741816 0
-0.179982 -0.02902 0
-0.181249 -0.0516197 0
-0.17956 -0.0743135 0
-0.174429 -0.0959901 0
-0.165272 -0.115238 0
-0.151495 -0.130217 0
-0.132688 -0.138582 0
-0.108957 -0.137599 0
-0.0813911 -0.124674 0
-0.0525691 -0.0986383 0
-0.0267663 -0.0621348 0
-0.00890937 -0.0245353 0
-0.00128046 -0.000470074 0
-0.0011574 0.0225957 0
-0.0048685 0.0496165 0
-0.0107817 0.0646553 0
-0.0179935 0.0729823 0
-0.0260655 0.0780585 0
-0.034847 0.0818041 0
-0.0443265 0.0850903 0
-0.0545291 0.0881314 0
-0.0654535 0.0907399 0
-0.0770411 0.0924906 0
-0.0891657 0.0928387 0
-0.101638 0.0912137 0
-0.114215 0.0870935 0
-0.126616 0.0800613 0
-0.138536 0.0698466 0
-0.149655 0.0563529 0
-0.15966 0.0396735 0
-0.168249 0.0200958 0
-0.175146 -0.00190787 0
-0.180125 -0.0257164 0
-0.182965 -0.0508155 0
-0.183346 -0.076426 0
-0.180753 -0.101602 0
-0.174453 -0.125083 0
-0.163541 -0.145061 0
-0.147129 -0.158957 0
-0.124714 -0.163369 0
-0.0967514 -0.154432 0
-0.0653974 -0.129057 0
-0.0351585 -0.0877581 0
-0.0124585 -0.0394689 0
-0.00193663 -0.00368717 0
-0.00103487 0.024788 0
-0.00443739 0.0545378 0
-0.00997961 0.0711893 0
-0.0168294 0.08051 0
-0.0245428 0.0863162 0
-0.032942 0.0907272 0
-0.0419874 0.0946923 0
-0.0516814 0.098426 0
-0.0620094 0.101698 0
-0.0729112 0.104022 0
-0.0842729 0.104793 0
-0.09593 0.103388 0
-0.107677 0.0992437 0
-0.119281 0.0919158 0
-0.130489 0.0811198 0
-0.141049 0.0667592 0
-0.150718 0.0489408 0
-0.159278 0.0279774 0
-0.166544 0.00437386 0
-0.172366 -0.0211978 0
-0.176628 -0.0482312 0
-0.179128 -0.0761305 0
-0.179396 -0.104222 0
-0.176609 -0.13155 0
-0.169588 -0.156526 0
-0.156954 -0.176538 0
-0.137499 -0.187658 0
-0.110848 -0.184756 0
-0.0784156 -0.16252 0
-0.0445172 -0.118432 0
-0.0167855 -0.0592263 0
-0.00280668 -0.00843047 0
-0.000874969 0.0266979 0
-0.00386125 0.0590168 0
-0.00887597 0.0772673 0
-0.0151766 0.0875825 0
-0.0223104 0.0940908 0
-0.0300623 0.0991037 0
-0.038356 0.103655 0
-0.0471673 0.107969 0
-0.0564705 0.111786 0
-0.0662104 0.114576 0
-0.0762941 0.115685 0
-0.0865928 0.114452 0
-0.0969483 0.110283 0
-0.107182 0.102714 0
-0.117108 0.0914553 0
-0.126542 0.0764182 0
-0.135326 0.0577341 0
-0.143334 0.0357528 0
-0.150488 0.0110185 0
-0.156736 -0.0157726 0
-0.162101 -0.0440299 0
-0.166552 -0.0733811 0
-0.169741 -0.103514 0
-0.170851 -0.133935 0
-0.168511 -0.163501 0
-0.160885 -0.189823 0
-0.14602 -0.208694 0
-0.122544 -0.213846 0
-0.0908164 -0.19759 0
-0.0544885 -0.153589 0
-0.0219073 -0.0843829 0
-0.00396141 -0.0151986 0
-0.00068856 0.0282614 0
-0.00317521 0.0629262 0
-0.00753071 0.0827281 0
-0.0131168 0.0940084 0
-0.0194711 0.101153 0
-0.0263349 0.106657 0
-0.0335895 0.111649 0
-0.0411833 0.11638 0
-0.0490821 0.120577 0
-0.0572422 0.123684 0
-0.0656005 0.125018 0
-0.0740724 0.123889 0
-0.0825555 0.119684 0
-0.0909352 0.111927 0
-0.0990931 0.100326 0
-0.106919 0.0848085 0
-0.114332 0.0655394 0
-0.121296 0.04292 0
-0.127843 0.0175522 0
-0.134064 -0.00983741 0
-0.140114 -0.03855 0
-0.146135 -0.0683898 0
-0.151994 -0.0994571 0
-0.157011 -0.131865 0
-0.159765 -0.165157 0
-0.158068 -0.19749 0
-0.149239 -0.224723 0
-0.130806 -0.239726 0
-0.101784 -0.232459 0
-0.0646583 -0.192173 0
-0.0278336 -0.115205 0
-0.00549812 -0.0246581 0
-0.000491152 0.0294411 0
-0.00243144 0.0661734 0
-0.00603648 0.0874414 0
-0.0107799 0.0996247 0
-0.0161918 0.107303 0
-0.0219682 0.113148 0
-0.0279462 0.118392 0
-0.0340482 0.123333 0
-0.0402353 0.12771 0
-0.0464817 0.130958 0
-0.0527609 0.132382 0
-0.0590413 0.131278 0
-0.0652845 0.127022 0
-0.0714479 0.119132 0
-0.0774887 0.107319 0
-0.0833728 0.0915257 0
-0.0890906 0.0719522 0
-0.0946804 0.0490611 0
-0.100257 0.0235352 0
-0.10603 -0.00382704 0
-0.112275 -0.032265 0
-0.119306 -0.0616232 0
-0.127271 -0.0923998 0
-0.13577 -0.125405 0
-0.143529 -0.161104 0
-0.148202 -0.198567 0
-0.146496 -0.23418 0
-0.134807 -0.260392 0
-0.110568 -0.265054 0
-0.0745932 -0.232679 0
-0.0345595 -0.151557 0
-0.00752221 -0.0376784 0
-0.000302231 0.0302345 0
-0.00169767 0.0687158 0
-0.00451651 0.0913229 0
-0.00834001 0.10431 0
-0.0126954 0.112385 0
-0.017237 0.118384 0
-0.0217619 0.123659 0
-0.0261699 0.128576 0
-0.0304228 0.132907 0
-0.0345177 0.136102 0
-0.038471 0.13747 0
-0.0423099 0.136309 0
-0.0460673 0.131992 0
-0.0497807 0.124039 0
-0.0534926 0.112165 0
-0.0572534 0.0963248 0
-0.0611285 0.0767459 0
-0.0652145 0.0539432 0
-0.0696676 0.0286831 0
-0.0747379 0.00186786 0
-0.080773 -0.0256799 0
-0.088227 -0.053723 0
-0.0975201 -0.0830422 0
-0.108658 -0.115125 0
-0.12076 -0.151523 0
-0.131621 -0.192614 0
-0.137579 -0.235881 0
-0.133982 -0.273978 0
-0.116528 -0.29316 0
-0.0838619 -0.273214 0
-0.0420463 -0.192872 0
-0.0101233 -0.0553239 0
-0.000144688 0.0306814 0
-0.00105579 0.0705754 0
-0.00312217 0.0943485 0
-0.00601024 0.107996 0
-0.0092495 0.116293 0
-0.012464 0.122231 0
-0.015421 0.127293 0
-0.0180061 0.131934 0
-0.020188 0.135983 0
-0.0219912 0.138924 0
-0.0234783 0.140089 0
-0.0247382 0.138789 0
-0.0258777 0.134408 0
-0.0270184 0.126476 0
-0.0282959 0.114717 0
-0.0298557 0.0990935 0
-0.0318506 0.0798472 0
-0.0344418 0.0575191 0
-0.0378098 0.0329283 0
-0.0421827 0.00706586 0
-0.047877 -0.0191485 0
-0.0553592 -0.0453182 0
-0.0652151 -0.0722981 0
-0.0778885 -0.102057 0
-0.0931336 -0.137244 0
-0.10929 -0.179876 0
-0.122741 -0.229209 0
-0.128042 -0.278946 0
-0.119123 -0.314565 0
-0.0920245 -0.311573 0
-0.0502 -0.238152 0
-0.0133597 -0.0788068 0
-4.50854e-05 0.0308712 0
-0.000602443 0.0718541 0
-0.00203255 0.0965663 0
-0.00403845 0.110672 0
-0.00615645 0.118974 0
-0.00800047 0.124609 0
-0.00932766 0.1292 0
-0.0100244 0.13331 0
-0.0100747 0.13684 0
-0.00953407 0.13933 0
-0.00851178 0.140148 0
-0.00715733 0.138635 0
-0.00564779 0.134192 0
-0.00418695 0.126372 0
-0.00300442 0.114916 0
-0.00234554 0.0997955 0
-0.00246257 0.081257 0
-0.0036031 0.0598411 0
-0.00599693 0.0363682 0
-0.00984991 0.0118518 0
-0.0153732 -0.0127168 0
-0.0228559 -0.0367849 0
-0.0328063 -0.0610251 0
-0.0459636 -0.0874997 0
-0.0628268 -0.119693 0
-0.0827129 -0.161385 0
-0.102658 -0.214304 0
-0.116928 -0.274281 0
-0.117865 -0.327211 0
-0.0985737 -0.345318 0
-0.0588347 -0.285971 0
-0.0172483 -0.109415 0
-3.5974e-05 0.0309522 0
-0.000454658 0.0727491 0
-0.00145943 0.0981062 0
-0.00270715 0.112386 0
-0.00374477 0.120416 0
-0.00420843 0.125474 0
-0.00387762 0.12933 0
-0.0026628 0.132661 0
-0.000575363 0.135452 0
0.00229649 0.137306 0
0.00580029 0.137646 0
0.00972905 0.135854 0
0.0138299 0.131363 0
0.0178133 0.123757 0
0.0213614 0.1128 0
0.0241356 0.0984779 0
0.0257926 0.0810347 0
0.0260047 0.0609918 0
0.024488 0.0391281 0
0.0210307 0.0164022 0
0.0155111 -0.00622435 0
0.0078771 -0.0281607 0
-0.00209258 -0.0497292 0
-0.0150864 -0.0726446 0
-0.0321221 -0.100649 0
-0.0537338 -0.138931 0
-0.0783358 -0.19221 0
-0.100732 -0.259709 0
-0.112203 -0.329373 0
-0.102815 -0.371835 0
-0.0675919 -0.334416 0
-0.0217424 -0.148406 0
-0.000162355 0.0311506 0
-0.000765065 0.0735722 0
-0.00166166 0.0991845 0
-0.00233941 0.113233 0
-0.00236433 0.120632 0
-0.00144489 0.124803 0
0.000571883 0.127654 0
0.00372194 0.129973 0
0.00794592 0.131829 0
0.0131094 0.132893 0
0.0190131 0.132651 0
0.0253965 0.130537 0
0.031942 0.126033 0
0.0382863 0.118759 0
0.0440331 0.108504 0
0.0487655 0.0952677 0
0.0520658 0.0792876 0
0.0535441 0.0610485 0
0.0528744 0.0412577 0
0.0498364 0.0207679 0
0.0443494 0.000416548 0
0.036468 -0.0192862 0
0.0262486 -0.0384146 0
0.0134675 -0.0581842 0
-0.0028424 -0.0817641 0
-0.0242152 -0.114832 0
-0.0509736 -0.164949 0
-0.0796085 -0.23594 0
-0.101384 -0.319896 0
-0.103673 -0.38841 0
-0.0757826 -0.380954 0
-0.0266759 -0.196824 0
-0.000496068 0.031809 0
-0.00175392 0.0747743 0
-0.00297315 0.100098 0
-0.0033105 0.113335 0
-0.00238214 0.119627 0
-4.61289e-05 0.122553 0
0.00371471 0.124127 0
0.00883497 0.125229 0
0.0151848 0.125998 0
0.022578 0.126167 0
0.0307694 0.125282 0
0.0394513 0.122841 0
0.0482545 0.118381 0
0.0567592 0.111562 0
0.0645106 0.102203 0
0.071036 0.0903113 0
0.0758701 0.0761096 0
0.0785886 0.0600299 0
0.0788493 0.0426852 0
0.0764356 0.0247921 0
0.0712839 0.00703085 0
0.0634559 -0.0101911 0
0.0530815 -0.0269159 0
0.0401911 -0.0440114 0
0.0243957 -0.0638317 0
0.0044204 -0.0914158 0
-0.021779 -0.135407 0
-0.053711 -0.204915 0
-0.0843256 -0.298531 0
-0.0994403 -0.392372 0
-0.082123 -0.422201 0
-0.0316535 -0.255153 0
-0.00116477 0.0334698 0
-0.0037674 0.0769739 0
-0.00584438 0.101195 0
-0.00605596 0.112787 0
-0.00416679 0.117357 0
-0.000309731 0.118629 0
0.00530625 0.118673 0
0.0124653 0.118404 0
0.0209479 0.117992 0
0.0305123 0.117216 0
0.0408729 0.115681 0
0.0516867 0.112946 0
0.0625507 0.108608 0
0.0730103 0.10237 0
0.0825766 0.0940767 0
0.0907485 0.0837399 0
0.0970417 0.0715537 0
0.101024 0.0578845 0
0.102358 0.0432359 0
0.100836 0.0281775 0
0.0964018 0.0132315 0
0.0891266 -0.00128855 0
0.0791439 -0.0154613 0
0.0665471 -0.0299787 0
0.0511981 -0.0467201 0
0.032397 -0.069751 0
0.00840175 -0.106877 0
-0.0231345 -0.169977 0
-0.0595456 -0.266444 0
-0.0874814 -0.381409 0
-0.0843274 -0.453636 0
-0.0358543 -0.322661 0
-0.00240489 0.0370395 0
-0.00736556 0.0809676 0
-0.0108707 0.102783 0
-0.011026 0.111565 0
-0.00799206 0.113655 0
-0.00236914 0.112851 0
0.0053098 0.111157 0
0.0146396 0.109431 0
0.0253008 0.10782 0
0.0370026 0.106121 0
0.0494329 0.103985 0
0.0622319 0.101029 0
0.0749836 0.0969094 0
0.0872235 0.0913699 0
0.0984566 0.0842778 0
0.108182 0.0756415 0
0.115925 0.0656166 0
0.12127 0.0544936 0
0.123901 0.0426614 0
0.12363 0.0305454 0
0.12041 0.018518 0
0.114325 0.00678505 0
0.10553 -0.00475742 0
0.0941238 -0.0166793 0
0.0800104 -0.0305571 0
0.0627046 -0.0498071 0
0.0409544 -0.0810759 0
0.0123473 -0.135635 0
-0.0251857 -0.226842 0
-0.063992 -0.354268 0
-0.0785347 -0.469387 0
-0.0377011 -0.396216 0
-0.00463776 0.0440821 0
-0.0133841 0.0876319 0
-0.0186611 0.104901 0
-0.0183829 0.109325 0
-0.0136232 0.108102 0
-0.00570599 0.104864 0
0.004428 0.101331 0
0.0161806 0.0981745 0
0.0291542 0.0954422 0
0.0430339 0.0929179 0
0.0575062 0.0902858 0
0.0722197 0.0872163 0
0.0867726 0.083418 0
0.100719 0.0786749 0
0.113588 0.0728707 0
0.12491 0.0660016 0
0.134246 0.0581776 0
0.141226 0.0496077 0
0.145574 0.0405679 0
0.147134 0.0313501 0
0.145875 0.0221924 0
0.141876 0.0131945 0
0.135288 0.00421583 0
0.126275 -0.00523333 0
0.114749 -0.0163636 0
0.100184 -0.0321297 0
0.0814305 -0.0582495 0
0.0561979 -0.104621 0
0.0211394 -0.185263 0
-0.0239117 -0.311989 0
-0.0585834 -0.462452 0
-0.0343256 -0.468243 0
-0.00846915 0.0571891 0
-0.0225786 0.0973807 0
-0.0288528 0.106703 0
-0.0265682 0.104959 0
-0.0185963 0.0997363 0
-0.00722583 0.0939423 0
0.00620152 0.0886912 0
0.0209649 0.0842984 0
0.0366599 0.0806497 0
0.0530009 0.0774898 0
0.0697163 0.0745262 0
0.0865021 0.0714767 0
0.103008 0.0680992 0
0.118842 0.0642126 0
0.133594 0.059712 0
0.146857 0.0545754 0
0.158262 0.0488629 0