# vtk DataFile Version 2.0
Lid-driven cavity
ASCII
DATASET STRUCTURED_POINTS
DIMENSIONS 32 32 1
ORIGIN 0.015625 0.015625 0
SPACING 0.03125 0.03125 1
POINT_DATA 1024
SCALARS pressure double 1
LOOKUP_TABLE default
10.9101
10.8819
10.8479
10.8227
10.8123
10.8185
10.8417
10.8824
10.9418
11.0216
11.1235
11.2486
11.3972
11.5677
11.7565
11.9578
12.1635
12.3632
12.545
12.6968
12.8081
12.8719
12.8863
12.8549
12.7866
12.6942
12.5919
12.4928
12.4081
12.3472
12.3165
12.316
10.9383
10.9089
10.8822
10.865
10.8605
10.8701
10.8945
10.9347
10.992
11.0681
11.1645
11.2823
11.4218
11.5816
11.7585
11.9471
12.14
12.3272
12.4977
12.64
12.7442
12.8039
12.8175
12.7893
12.7279
12.6455
12.5554
12.4691
12.3958
12.3427
12.315
12.3154
10.9729
10.9322
10.9047
10.8906
10.8893
10.9006
10.9247
10.9626
11.0157
11.0859
11.1751
11.2848
11.4156
11.5667
11.7358
11.918
12.1057
12.2893
12.4576
12.5986
12.7019
12.7605
12.7727
12.7428
12.6808
12.599
12.511
12.4286
12.3594
12.3094
12.2829
12.2839
10.9939
10.9391
10.9071
10.8927
10.8919
10.9025
10.9239
10.957
11.0033
11.0651
11.1448
11.2446
11.366
11.5093
11.673
11.8532
12.0417
12.2288
12.4027
12.5504
12.6601
12.7232
12.7369
12.7051
12.6382
12.5508
12.4578
12.3714
12.2998
12.248
12.2194
12.218
10.9849
10.9159
10.878
10.8612
10.8583
10.8656
10.8815
10.9066
10.9428
10.9928
11.0597
11.1466
11.2563
11.3902
11.5484
11.7284
11.9216
12.1178
12.3049
12.4685
12.5946
12.6721
12.6955
12.667
12.5967
12.5007
12.3967
12.3
12.2191
12.1596
12.1246
12.1177
10.9308
10.8484
10.8043
10.7837
10.7766
10.7776
10.7846
10.798
10.8198
10.8531
10.902
10.9706
11.063
11.1826
11.3312
11.5086
11.7069
11.916
12.1234
12.3139
12.4705
12.5781
12.6269
12.6149
12.55
12.4484
12.3309
12.2169
12.1194
12.0454
11.9985
11.9827
10.8168
10.7222
10.6719
10.6462
10.6326
10.6241
10.6182
10.6148
10.6161
10.6257
10.6482
10.6891
10.7542
10.8491
10.9781
11.144
11.3425
11.5637
11.7971
12.0265
12.2322
12.3936
12.4937
12.5229
12.4832
12.3881
12.2604
12.1252
12.0029
11.9055
11.8394
11.8103
10.6282
10.5223
10.4657
10.4336
10.4107
10.3889
10.3647
10.3376
10.3098
10.2848
10.268
10.2662
10.2873
10.3394
10.4306
10.5676
10.7521
10.9778
11.238
11.5178
11.7946
12.0415
12.2312
12.3421
12.3639
12.3023
12.1784
12.0233
11.8684
11.7367
11.6428
11.5944
10.35
10.2339
10.1705
10.1301
10.0945
10.054
10.0042
9.94393
9.87447
9.79933
9.72427
9.65733
9.60872
9.59038
9.61507
9.69511
9.83984
10.0509
10.3304
10.667
11.0374
11.4078
11.7382
11.9892
12.131
12.1521
12.0647
11.9027
11.7119
11.5348
11.4
11.3238
9.96805
9.84267
9.77167
9.71997
9.66674
9.60056
9.51549
9.40898
9.28107
9.13448
8.97499
8.81189
8.65823
8.53055
8.448
8.43055
8.49645
8.65884
8.93643
9.32633
9.80742
10.3406
10.8717
11.3392
11.6845
11.867
11.8768
11.742
11.5222
11.2885
11.0973
10.9825
9.46962
9.33607
9.25585
9.18895
9.11171
9.01068
8.87786
8.70854
8.50071
8.25558
7.97846
7.67977
7.37579
7.08872
6.84582
6.67728
6.61277
6.67646
6.9127
7.336
7.93212
8.66018
9.45349
10.2252
10.8806
11.3356
11.5403
11.4993
11.2781
10.9833
10.7188
10.5487
8.84488
8.70427
8.61267
8.52557
8.41653
8.26964
8.0742
7.82248
7.50954
7.13422
6.70073
6.22038
5.71295
5.20729
4.74049
4.35536
4.09597
4.00132
4.13577
4.55149
5.24649
6.1839
7.28913
8.45203
9.53703
10.4042
10.9416
11.1042
10.9426
10.5972
10.2406
9.99438
8.08823
7.94178
7.83624
7.72326
7.5737
7.36886
7.09467
6.73952
6.29461
5.75549
5.12458
4.41364
3.6461
2.85814
2.09816
1.42394
0.897173
0.575258
0.532868
0.878512
1.63014
2.76299
4.20317
5.82449
7.45314
8.88599
9.92851
10.4522
10.4568
10.0981
9.63442
9.28598
7.19958
7.04869
6.92664
6.78209
6.58341
6.30885
5.94039
5.46181
4.85953
4.125
3.25803
2.27037
1.18886
0.0573389
-1.06352
-2.0992
-2.96757
-3.58826
-3.88348
-3.68992
-2.95144
-1.67274
0.0842779
2.1907
4.44594
6.58679
8.32255
9.40632
9.73622
9.44206
8.86883
8.38634
6.18526
6.03159
5.891
5.71014
5.45523
5.10137
4.62621
4.00834
3.2287
2.27391
1.14047
-0.160571
-1.59939
-3.12467
-4.66326
-6.12315
-7.40035
-8.38966
-8.99857
-9.04705
-8.41329
-7.07448
-5.06843
-2.50901
0.397328
3.34418
5.94577
7.80945
8.6731
8.57182
7.90915
7.25461
5.0581
4.90365
4.74367
4.5239
4.20881
3.77042
3.18189
2.41632
1.44879
0.260506
-1.15593
-2.79079
-4.612
-6.56145
-8.55406
-10.4807
-12.2157
-13.6286
-14.6006
-14.9648
-14.5369
-13.2514
-11.1121
-8.19915
-4.69697
-0.923695
2.6613
5.51102
7.14789
7.42058
6.72173
5.8518
3.83673
3.68384
3.50551
3.24755
2.87312
2.35138
1.6511
0.73985
-0.413262
-1.83268
-3.53011
-5.49783
-7.70233
-10.0798
-12.5347
-14.9422
-17.1564
-19.0228
-20.3952
-21.1178
-20.9855
-19.8769
-17.7538
-14.6477
-10.6914
-6.17238
-1.57971
2.4052
5.05359
5.92474
5.28402
4.15382
2.54383
2.39517
2.20197
1.91099
1.48436
0.888614
0.0883791
-0.954061
-2.27544
-3.90582
-5.86147
-8.13715
-10.6989
-13.4788
-16.3727
-19.2429
-21.926
-24.2467
-26.0346
-27.1328
-27.3492
-26.529
-24.58
-21.4782
-17.282
-12.2025
-6.69609
-1.52468
2.33183
4.04911
3.60597
2.17629
1.20366
1.06201
0.860382
0.546948
0.0827686
-0.568256
-1.44541
-2.59137
-4.04834
-5.85175
-8.02242
-10.5581
-13.4254
-16.554
-19.8339
-23.1175
-26.2283
-28.9746
-31.167
-32.6367
-33.217
-32.7566
-31.1186
-28.2198
-24.035
-18.6619
-12.4539
-6.16736
-0.98475
1.82489
1.76711
0.0181582
-0.161005
-0.293025
-0.493368
-0.812467
-1.29115
-1.96872
-2.88848
-4.09775
-5.64376
-7.56687
-9.89222
-12.6208
-15.7209
-19.1217
-22.7102
-26.3332
-29.8053
-32.9236
-35.4854
-37.3083
-38.2423
-38.1582
-36.9197
-34.3843
-30.4508
-25.0854
-18.4754
-11.2647
-4.73564
-0.605984
-0.0327077
-2.07775
-1.53228
-1.65251
-1.83825
-2.1392
-2.60023
-3.26552
-4.18315
-5.40506
-6.98297
-8.96145
-11.3695
-14.2112
-17.4574
-21.0388
-24.8426
-28.714
-32.4642
-35.8841
-38.7628
-40.9081
-42.1714
-42.446
-41.6244
-39.5492
-36.0489
-30.9675
-24.2858
-16.4249
-8.61638
-2.95369
-1.4187
-3.65406
-2.90209
-3.00842
-3.16135
-3.41216
-3.8135
-4.41793
-5.28002
-6.45664
-8.00332
-9.96779
-12.3818
-15.2522
-18.5528
-22.2171
-26.1357
-30.1566
-34.0929
-37.7348
-40.8682
-43.2943
-44.8565
-45.4582
-45.0187
-43.4204
-40.4484
-35.8486
-29.389
-21.1733
-12.1964
-4.7667
-1.79616
-3.96598
-4.27325
-4.36631
-4.46203
-4.61952
-4.90793
-5.39366
-6.14066
-7.21142
-8.66482
-10.5508
-12.9028
-15.7289
-19.0045
-22.6654
-26.6052
-30.6765
-34.6984
-38.468
-41.7772
-44.4296
-46.2584
-47.1535
-47.0432
-45.8581
-43.4183
-39.3898
-33.3522
-25.0289
-14.9736
-5.45306
-0.32668
-1.9091
-5.6634
-5.74433
-5.752
-5.76138
-5.87117
-6.17187
-6.74144
-7.64891
-8.9555
-10.7113
-12.949
-15.6759
-18.8667
-22.4578
-26.3453
-30.3864
-34.4068
-38.2128
-41.6064
-44.401
-46.4342
-47.5845
-47.7617
-46.8962
-44.8858
-41.4078
-35.8673
-27.5803
-16.4487
-4.33475
4.0709
4.05995
-7.1141
-7.18121
-7.05408
-6.84268
-6.69443
-6.73615
-7.06496
-7.7567
-8.87269
-10.4602
-12.5479
-15.1396
-18.2074
-21.6869
-25.4753
-29.4337
-33.3943
-37.172
-40.5785
-43.4374
-45.5958
-46.9307
-47.3425
-46.7324
-44.986
-41.867
-36.7587
-28.5131
-16.1735
-0.705522
12.7079
16.0349
-8.71099
-8.75471
-8.41362
-7.87563
-7.37083
-7.07366
-7.10223
-7.53629
-8.43271
-9.83127
-11.7531
-14.1953
-17.1254
-20.4767
-24.1467
-27.9996
-31.873
-35.589
-38.9673
-41.8388
-44.0565
-45.5008
-46.0656
-45.6322
-44.035
-41.0028
-35.9271
-27.5455
-13.6955
6.18412
27.1451
36.8531
-10.6184
-10.6016
-9.90704
-8.88527
-7.8961
-7.17657
-6.85528
-7.00611
-7.67315
-8.88254
-10.6434
-12.9435
-15.7439
-18.9742
-22.5316
-26.2826
-30.0694
-33.72
-37.0594
-39.9221
-42.1616
-43.6553
-44.296
-43.9387
-42.3653
-39.1889
-33.6688
-24.2582
-8.30548
17.3605
49.3457
70.4488
-13.1748
-12.9668
-11.6446
-9.89691
-8.26517
-7.03949
-6.33622
-6.20038
-6.65035
-7.69107
-9.31546
-11.4996
-14.1968
-17.3325
-20.8027
-24.4758
-28.1977
-31.8007
-35.1133
-37.9702
-40.2199
-41.7272
-42.3685
-41.9955
-40.3056
-36.7506
-30.2735
-18.7781
1.41054
34.7864
82.1534
122.43
-17.1589
-16.3004
-13.7649
-10.9004
-8.43649
-6.63775
-5.54933
-5.15187
-5.42132
-6.33377
-7.86268
-9.97124
-12.6045
-15.6834
-19.1028
-22.7322
-26.4202
-30.0024
-33.3089
-36.1725
-38.4328
-39.9352
-40.5203
-40
-38.0564
-33.8487
-25.8041
-10.9379
16.0705
62.2009
130.416
200.638
-24.5522
-21.3244
-16.2678
-11.6771
-8.19769
-5.82318
-4.40025
-3.81008
-3.96888
-4.8181
-6.31067
-8.39708
-11.0147
-14.0804
-17.4878
-21.1071
-24.7893
-28.3721
-31.6866
-34.5622
-36.8282
-38.3067
-38.7938
-38.019
-35.5727
-30.3943
-19.9835
-0.0056795
37.2302
102.716
204.489
313.862
-40.4364
-28.0708
-17.945
-11.0619
-6.59452
-3.84353
-2.32392
-1.75429
-1.9786
-2.90662
-4.47669
-6.6324
-9.30797
-12.4196
-15.8618
-19.5071
-23.2095
-26.8094
-30.1389
-33.0242
-35.2838
-36.7152
-37.0629
-35.9531
-32.7658
-26.1231
-12.4184
14.3739
65.1516
158.142
319.865
545.024
-84.6491
-28.4501
-10.4218
-3.50682
-0.25085
1.38207
2.0362
1.95062
1.22544
-0.0908776
-1.96504
-4.3599
-7.22338
-10.4821
-14.039
-17.774
-21.5477
-25.2055
-28.582
-31.5025
-33.7772
-35.1823
-35.4148
-33.9949
-30.0515
-21.7009
-4.72679
28.1713
90.5026
208.801
446.573
980.698
VECTORS velocity double
5.93154e-05 -5.93155e-05 0
0.000131285 -1.26546e-05 0
7.08533e-05 7.30865e-05 0
-0.000151494 0.000149261 0
-0.000507594 0.000206839 0
-0.000965102 0.000250668 0
-0.00150239 0.000286618 0
-0.00210614 0.000317136 0
-0.00276421 0.000340929 0
-0.00345925 0.000354117 0
-0.00416491 0.00035154 0
-0.00484428 0.000327826 0
-0.00545038 0.000278276 0
-0.00592838 0.000199725 0
-0.00621964 9.1533e-05 0
-0.0062679 -4.32734e-05 0
-0.00602785 -0.000196779 0
-0.00547403 -0.000357039 0
-0.00460902 -0.000507973 0
-0.00347067 -0.000630371 0
-0.00213587 -0.00070443 0
-0.00071784 -0.000713605 0
0.000645035 -0.000649271 0
0.00180966 -0.00051535 0
0.00265302 -0.000328019 0
0.00309607 -0.000115022 0
0.0031202 9.08916e-05 0
0.0027678 0.000261504 0
0.0021289 0.000377393 0
0.00133685 0.000414657 0
0.000583129 0.000339068 0
0.000122031 0.00012203 0
8.97433e-06 -0.000127606 0
-0.000127392 0.000120032 0
-0.000607692 0.000481132 0
-0.00144539 0.000801264 0
-0.0025845 0.00105004 0
-0.00396215 0.00124263 0
-0.0055279 0.00139768 0
-0.00723971 0.00152163 0
-0.00905266 0.00160745 0
-0.010909 0.00163894 0
-0.0127325 0.00159589 0
-0.0144282 0.00145854 0
-0.0158856 0.0012111 0
-0.0169858 0.000845115 0
-0.0176111 0.000362719 0
-0.0176576 -0.000219779 0
-0.0170498 -0.000868048 0
-0.0157545 -0.00153491 0
-0.0137902 -0.00215943 0
-0.0112372 -0.00267021 0
-0.00824293 -0.0029937 0
-0.00501884 -0.00306647 0
-0.0018276 -0.00285052 0
0.00104295 -0.00234927 0
0.00332262 -0.00161714 0
0.00480857 -0.000754891 0
0.00540556 0.000109634 0
0.00515034 0.000850381 0
0.00420272 0.00137503 0
0.00282542 0.00158636 0
0.00138295 0.00136355 0
0.000348767 0.000592828 0
-0.000115002 -2.15777e-05 0
-0.000643604 0.000678972 0
-0.00174899 0.00150787 0
-0.00336073 0.00222396 0
-0.00538034 0.00278605 0
-0.00772092 0.00322486 0
-0.0103118 0.00357209 0
-0.013087 0.00383424 0
-0.0159712 0.00399195 0
-0.0188699 0.00400949 0
-0.0216667 0.00384567 0
-0.0242253 0.00346304 0
-0.0263966 0.00283526 0
-0.0280285 0.00195315 0
-0.0289787 0.00083012 0
-0.0291269 -0.000492555 0
-0.0283887 -0.00194113 0
-0.0267257 -0.00342015 0
-0.0241554 -0.00480886 0
-0.0207626 -0.00596648 0
-0.0167084 -0.00674599 0
-0.0122316 -0.00701502 0
-0.00764218 -0.00668266 0
-0.00330016 -0.0057297 0
0.000420402 -0.00423694 0
0.00319166 -0.0023923 0
0.00480564 -0.000463936 0
0.00522893 0.00125588 0
0.00461725 0.00252884 0
0.00328636 0.00314075 0
0.00168995 0.00284804 0
0.000445441 0.00138704 0
-0.000276067 0.000369491 0
-0.00130233 0.00184277 0
-0.0031687 0.00331584 0
-0.00567437 0.0045334 0
-0.00866094 0.00548279 0
-0.0120165 0.00622427 0
-0.0156552 0.00680222 0
-0.0194931 0.00721726 0
-0.0234316 0.00743154 0
-0.0273489 0.00738594 0
-0.0311003 0.00701747 0
-0.0345238 0.00627335 0
-0.037449 0.00512138 0
-0.0397078 0.00355781 0
-0.0411457 0.00161345 0
-0.0416322 -0.000641193 0
-0.0410688 -0.00309396 0
-0.0393957 -0.00560344 0
-0.0366032 -0.00798841 0
-0.0327488 -0.0100341 0
-0.0279712 -0.0115102 0
-0.0225002 -0.0121986 0
-0.0166576 -0.011931 0
-0.0108466 -0.0106343 0
-0.00552125 -0.00837827 0
-0.00113291 -0.00541056 0
0.00195296 -0.00214552 0
0.00356412 0.000903003 0
0.00379463 0.00326289 0
0.00297485 0.00455737 0
0.00161892 0.00438375 0
0.000441141 0.00227362 0
-0.000461111 0.00110667 0
-0.00205243 0.00372317 0
-0.00476696 0.00601635 0
-0.00824665 0.00781824 0
-0.0122643 0.00920218 0
-0.0166835 0.0102796 0
-0.0214076 0.0111096 0
-0.0263416 0.0116818 0
-0.0313717 0.0119356 0
-0.0363591 0.0117865 0
-0.041142 0.0111512 0
-0.0455433 0.00996446 0
-0.0493794 0.00819163 0
-0.0524698 0.00583673 0
-0.0546453 0.00294791 0
-0.0557554 -0.000379046 0
-0.0556736 -0.00400126 0
-0.0543012 -0.00774175 0
-0.0515807 -0.0113631 0
-0.0475202 -0.0145743 0
-0.0422146 -0.0170531 0
-0.0358629 -0.0184785 0
-0.0287789 -0.0185777 0
-0.021392 -0.0171855 0
-0.0142286 -0.0143158 0
-0.00786353 -0.0102264 0
-0.0028319 -0.00544716 0
0.000492353 -0.000730772 0
0.00204497 0.00311354 0
0.00212578 0.00544569 0
0.00130697 0.00567017 0
0.000378594 0.00309335 0
-0.000663759 0.00223154 0
-0.00286382 0.00638967 0
-0.00647658 0.00967714 0
-0.0109748 0.0121354 0
-0.0160628 0.0139907 0
-0.0215835 0.015431 0
-0.0274347 0.0165335 0
-0.0335165 0.0172738 0
-0.0397077 0.017565 0
-0.0458602 0.0172969 0
-0.0518026 0.016366 0
-0.0573468 0.0146952 0
-0.0622963 0.0122465 0
-0.0664526 0.00902854 0
-0.0696222 0.00510116 0
-0.0716219 0.000577549 0
-0.0722849 -0.00437671 0
-0.0714643 -0.00955937 0
-0.0690461 -0.0146841 0
-0.0649774 -0.0193825 0
-0.0592951 -0.0232327 0
-0.05215 -0.0257957 0
-0.0438274 -0.0266671 0
-0.0347614 -0.025549 0
-0.0255335 -0.0223436 0
-0.0168406 -0.0172567 0
-0.00940951 -0.0108795 0
-0.00384923 -0.00418294 0
-0.000468304 0.00163216 0
0.00089843 0.00547953 0
0.000857459 0.00649612 0
0.000290644 0.00376259 0
-0.000877501 0.0037728 0
-0.00370774 0.00987871 0
-0.00823489 0.014328 0
-0.0137619 0.0175098 0
-0.0199314 0.0198737 0
-0.0265718 0.0217091 0
-0.0335802 0.023115 0
-0.040857 0.0240508 0
-0.0482786 0.0244009 0
-0.0556926 0.0240276 0
-0.0629203 0.0228054 0
-0.0697625 0.0206423 0
-0.0760051 0.0174915 0
-0.0814245 0.0133593 0
-0.0857938 0.00830921 0
-0.0888892 0.00246455 0
-0.0904986 -0.00399127 0
-0.0904289 -0.0108352 0
-0.0885108 -0.0177445 0
-0.0846264 -0.0242753 0
-0.0787452 -0.0299035 0
-0.0709526 -0.0340626 0
-0.0614795 -0.0361959 0
-0.0507316 -0.0358341 0
-0.0393114 -0.0327065 0
-0.0280137 -0.0268846 0
-0.0177632 -0.0189333 0
-0.00945997 -0.00999268 0
-0.00372934 -0.00166965 0
-0.000652273 0.00433754 0
0.000323382 0.00670342 0
0.000196124 0.00424936 0
-0.00109322 0.00574352 0
-0.00454858 0.0141936 0
-0.00996985 0.0199615 0
-0.0164989 0.0239324 0
-0.0237264 0.026848 0
-0.0314722 0.0291211 0
-0.0396365 0.0308758 0
-0.0481227 0.0320529 0
-0.0568078 0.0325056 0
-0.0655363 0.0320655 0
-0.0741222 0.0305811 0
-0.0823528 0.0279393 0
-0.0899932 0.0240773 0
-0.096791 0.0189908 0
-0.102484 0.0127396 0
-0.106806 0.00545217 0
-0.109503 -0.00267267 0
-0.110342 -0.0113846 0
-0.10911 -0.0203448 0
-0.105628 -0.0290421 0
-0.09979 -0.0368555 0
-0.0916012 -0.043092 0
-0.0812082 -0.0470326 0
-0.0689464 -0.0480071 0
-0.055387 -0.0455129 0
-0.0413708 -0.039392 0
-0.0279903 -0.0300569 0
-0.0164616 -0.0187008 0
-0.00783256 -0.00732119 0
-0.00257955 0.00165899 0
-0.000306105 0.00613286 0
9.77933e-05 0.00454327 0
-0.0012986 0.00813534 0
-0.00534156 0.0193001 0
-0.0115953 0.0265301 0
-0.0190572 0.0313548 0
-0.0272754 0.0348712 0
-0.0360658 0.037634 0
-0.0453328 0.0397941 0
-0.0549835 0.0412714 0
-0.0648959 0.0418846 0
-0.0749118 0.0414308 0
-0.0848369 0.0397269 0
-0.0944448 0.036632 0
-0.10348 0.0320603 0
-0.111665 0.0259902 0
-0.118705 0.0184731 0
-0.124303 0.00963956 0
-0.128169 -0.00029714 0
-0.130041 -0.0110492 0
-0.129674 -0.0222795 0
-0.126836 -0.0334273 0
-0.121353 -0.043791 0
-0.113134 -0.0525647 0
-0.102214 -0.0588727 0
-0.088813 -0.0618303 0
-0.0734053 -0.0606567 0
-0.0568012 -0.0548686 0
-0.0401889 -0.0445732 0
-0.0250747 -0.0308275 0
-0.0130044 -0.0158939 0
-0.00501693 -0.00300883 0
-0.00107528 0.00458558 0
-1.48482e-05 0.00462622 0
-0.00147868 0.0109126 0
-0.00603426 0.0251213 0
-0.0130131 0.0339414 0
-0.0212907 0.0396829 0
-0.0303811 0.0438518 0
-0.0400966 0.0471594 0
-0.0503452 0.0497843 0
-0.0610367 0.0516234 0
-0.0720496 0.052458 0
-0.0832227 0.0520463 0
-0.0943551 0.0501689 0
-0.105209 0.0466521 0
-0.115516 0.0413818 0
-0.124978 0.0343159 0
-0.133285 0.0254945 0
-0.140118 0.0150492 0
-0.145167 0.00320809 0
-0.148145 -0.00970396 0
-0.148792 -0.0233455 0
-0.14685 -0.0371403 0
-0.142078 -0.0503328 0
-0.134288 -0.0620321 0
-0.123383 -0.0712301 0
-0.109422 -0.0768359 0
-0.0927146 -0.0777659 0
-0.0739466 -0.0731316 0
-0.0542938 -0.0625751 0
-0.0354622 -0.0467713 0
-0.0194973 -0.0279852 0
-0.00817719 -0.0102251 0
-0.00209355 0.00177658 0
-0.000165063 0.00444631 0
-0.00161716 0.0140085 0
-0.00657081 0.0315347 0
-0.0141199 0.042056 0
-0.0230462 0.0487722 0
-0.0328347 0.0536414 0
-0.043292 0.0575426 0
-0.0543262 0.0606839 0
-0.0658482 0.0629374 0
-0.0777364 0.064045 0
-0.0898276 0.0637236 0
-0.101918 0.0617145 0
-0.113766 0.0578085 0
-0.125096 0.0518619 0
-0.135609 0.0438113 0
-0.144988 0.0336855 0
-0.152914 0.0216169 0
-0.159071 0.00784594 0
-0.163157 -0.00727732 0
-0.164916 -0.0233664 0
-0.164093 -0.0398845 0
-0.160397 -0.0560558 0
-0.153549 -0.0709469 0
-0.143309 -0.0834611 0
-0.129539 -0.092336 0
-0.112321 -0.0961908 0
-0.0921151 -0.0936811 0
-0.0699521 -0.0838414 0
-0.0475949 -0.0666938 0
-0.0275006 -0.0441219 0
-0.0122845 -0.0206246 0
-0.00347615 -0.002716 0
-0.000373498 0.00390775 0
-0.0016984 0.017324 0
-0.00689813 0.0383726 0
-0.0148183 0.0506874 0
-0.0241792 0.058428 0
-0.0344388 0.0640337 0
-0.045393 0.0685617 0
-0.0569458 0.0722518 0
-0.0690067 0.0749523 0
-0.0814538 0.0763653 0
-0.0941249 0.0761657 0
-0.106818 0.0740557 0
-0.119294 0.0697911 0
-0.131285 0.0632006 0
-0.142501 0.0542013 0
-0.152639 0.0428135 0
-0.161395 0.0291706 0
-0.168471 0.0135247 0
-0.173585 -0.00375568 0
-0.176496 -0.0222184 0
-0.176957 -0.0413952 0
-0.174665 -0.0605327 0
-0.169271 -0.0787115 0
-0.160396 -0.0948123 0
-0.147686 -0.107464 0
-0.130937 -0.115029 0
-0.110287 -0.115698 0
-0.0864825 -0.107792 0
-0.0611616 -0.0904213 0
-0.0370204 -0.06463 0
-0.0174856 -0.0348674 0
-0.00533433 -0.00943285 0
-0.000673313 0.00286094 0
-0.00170971 0.0207321 0
-0.00697304 0.0454275 0
-0.0150287 0.0596082 0
-0.0245711 0.0684106 0
-0.0350315 0.0747711 0
-0.0461879 0.0799349 0
-0.057935 0.0841787 0
-0.0701788 0.0873302 0
-0.0827981 0.0890538 0
-0.0956345 0.0889848 0
-0.108493 0.0867884 0
-0.121148 0.0821897 0
-0.133349 0.0749937 0
-0.144828 0.0651038 0
-0.155315 0.052536 0
-0.164541 0.0374293 0
-0.172249 0.0200494 0
-0.178199 0.000784932 0
-0.182182 -0.0198659 0
-0.183986 -0.0414828 0
-0.183337 -0.0633859 0
-0.179849 -0.0847398 0
-0.173021 -0.104488 0
-0.162279 -0.121241 0
-0.147095 -0.133185 0
-0.127203 -0.138084 0
-0.102923 -0.133492 0
-0.0755707 -0.117395 0
-0.0478469 -0.0895218 0
-0.0238343 -0.0535229 0
-0.0077611 -0.0190018 0
-0.00108993 0.00109769 0
-0.00164347 0.0240853 0
-0.00676877 0.0524629 0
-0.0147005 0.0685601 0
-0.024146 0.0784467 0
-0.0345086 0.0855579 0
-0.0455408 0.0913366 0
-0.0571227 0.096106 0
-0.0691552 0.0996792 0
-0.0815188 0.101688 0
-0.0940628 0.101731 0
-0.106606 0.099444 0
-0.118942 0.0945252 0
-0.130847 0.086764 0
-0.142091 0.0760573 0
-0.152448 0.0624253 0
-0.161702 0.0460196 0
-0.169658 0.0271235 0
-0.176142 0.00614519 0
-0.180994 -0.0163916 0
-0.184075 -0.0400721 0
-0.185178 -0.0643421 0
-0.183924 -0.0885256 0
-0.179727 -0.111727 0
-0.171811 -0.132659 0
-0.159312 -0.14945 0
-0.141496 -0.159527 0
-0.118131 -0.159695 0
-0.0900091 -0.146666 0
-0.0595627 -0.118421 0
-0.0312617 -0.0769377 0
-0.0108173 -0.0321047 0
-0.00164784 -0.00164009 0
-0.00149876 0.0272275 0
-0.00628006 0.0592273 0
-0.0138207 0.0772681 0
-0.022882 0.0882456 0
-0.0328392 0.0960788 0
-0.0434116 0.10242 0
-0.0544596 0.107652 0
-0.0658778 0.111583 0
-0.0775506 0.11382 0
-0.0893391 0.113932 0
-0.101081 0.111529 0
-0.112596 0.106292 0
-0.123695 0.0980017 0
-0.13419 0.0865592 0
-0.14391 0.071999 0
-0.152706 0.0544962 0
-0.160463 0.0343604 0
-0.16709 0.0120194 0
-0.172502 -0.0120023 0
-0.176656 -0.0372265 0
-0.17946 -0.0632798 0
-0.180589 -0.0897133 0
-0.179427 -0.115898 0
-0.175046 -0.140785 0
-0.166263 -0.162606 0
-0.151846 -0.178602 0
-0.130911 -0.184919 0
-0.103535 -0.17694 0
-0.0715901 -0.150538 0
-0.0395773 -0.105134 0
-0.0145225 -0.049408 0
-0.00237036 -0.00565829 0
-0.00128221 0.0300085 0
-0.00552582 0.0654713 0
-0.0124185 0.0854574 0
-0.0208177 0.0975168 0
-0.0300729 0.10602 0
-0.0398633 0.112842 0
-0.0500253 0.118441 0
-0.060447 0.122635 0
-0.0710195 0.125014 0
-0.0816205 0.125127 0
-0.0921121 0.122567 0
-0.102346 0.117002 0
-0.112171 0.108215 0
-0.121446 0.0961168 0
-0.130054 0.0807688 0
-0.137915 0.0623835 0
-0.144997 0.0413119 0
-0.151315 0.0180136 0
-0.156914 -0.00698584 0
-0.161852 -0.0331508 0
-0.166137 -0.0602668 0
-0.169569 -0.0881653 0
-0.17159 -0.116586 0
-0.171196 -0.144872 0
-0.166949 -0.171551 0
-0.157133 -0.19389 0
-0.140146 -0.207553 0
-0.115183 -0.206645 0
-0.0832623 -0.184699 0
-0.0485014 -0.137747 0
-0.0188805 -0.0714707 0
-0.00329975 -0.0113284 0
-0.0010079 0.0322986 0
-0.00454922 0.0709661 0
-0.0105654 0.0928714 0
-0.0180519 0.105989 0
-0.026338 0.115089 0
-0.0350579 0.122283 0
-0.0440207 0.128125 0
-0.0531085 0.13246 0
-0.0622233 0.134875 0
-0.0712652 0.134909 0
-0.080128 0.13214 0
-0.0887015 0.126236 0
-0.0968784 0.116983 0
-0.104566 0.104311 0
-0.111699 0.0883158 0
-0.118261 0.069259 0
-0.124295 0.0475526 0
-0.129916 0.0237118 0
-0.13529 -0.00171104 0
-0.140588 -0.0281896 0
-0.145952 -0.0555802 0
-0.151355 -0.0840161 0
-0.156384 -0.113686 0
-0.160078 -0.144472 0
-0.160851 -0.175424 0
-0.156575 -0.204109 0
-0.144918 -0.225978 0
-0.124064 -0.234037 0
-0.0938978 -0.219394 0
-0.0577035 -0.174007 0
-0.0238935 -0.0986411 0
-0.00450204 -0.0191302 0
-0.000696406 0.0340029 0
-0.0034155 0.0755222 0
-0.00837216 0.0992881 0
-0.0147383 0.113425 0
-0.0218328 0.123034 0
-0.0292427 0.130468 0
-0.0367477 0.136407 0
-0.0442255 0.140744 0
-0.0515936 0.143075 0
-0.0587823 0.14294 0
-0.0657254 0.139915 0
-0.0723599 0.133669 0
-0.0786298 0.123997 0
-0.0844946 0.110849 0
-0.0899415 0.0943579 0
-0.0950026 0.0748397 0
-0.0997747 0.0527785 0
-0.104435 0.0287669 0
-0.109237 0.00340998 0
-0.114466 -0.0227842 0
-0.120403 -0.0496849 0
-0.127222 -0.0776891 0
-0.134744 -0.107461 0
-0.142201 -0.139546 0
-0.148032 -0.173746 0
-0.149834 -0.208262 0
-0.144606 -0.23871 0
-0.129449 -0.257316 0
-0.102867 -0.252863 0
-0.0668415 -0.212758 0
-0.0295688 -0.130973 0
-0.00606289 -0.0296951 0
-0.000373307 0.0350726 0
-0.00220818 0.0790065 0
-0.00598379 0.104536 0
-0.0110781 0.119637 0
-0.0168135 0.129651 0
-0.0227319 0.137179 0
-0.0285831 0.143053 0
-0.0342426 0.147236 0
-0.0396492 0.149357 0
-0.0447709 0.148967 0
-0.0495911 0.14565 0
-0.0541037 0.139081 0
-0.0583142 0.129066 0
-0.0622429 0.115574 0
-0.0659315 0.0987687 0
-0.0694549 0.0790134 0
-0.0729372 0.0568591 0
-0.0765726 0.032982 0
-0.0806417 0.00806641 0
-0.0854942 -0.0173597 0
-0.0915216 -0.0431447 0
-0.0990837 -0.0698486 0
-0.108306 -0.0985563 0
-0.118772 -0.130527 0
-0.129175 -0.166531 0
-0.13707 -0.205781 0
-0.138945 -0.244544 0
-0.130825 -0.274758 0
-0.109634 -0.283195 0
-0.0755885 -0.252497 0
-0.0359128 -0.168183 0
-0.00807331 -0.0438313 0
-6.78608e-05 0.0355138 0
-0.00102539 0.0813577 0
-0.00357333 0.108508 0
-0.00731053 0.124496 0
-0.0115802 0.134797 0
-0.015886 0.142257 0
-0.0199502 0.147889 0
-0.0236499 0.151758 0
-0.0269503 0.153542 0
-0.0298644 0.152819 0
-0.0324327 0.149188 0
-0.0347152 0.142339 0
-0.0367881 0.132091 0
-0.0387423 0.118431 0
-0.0406836 0.101541 0
-0.0427341 0.0818146 0
-0.0450384 0.0598445 0
-0.0477767 0.0363704 0
-0.0511895 0.0121598 0
-0.0556048 -0.0121853 0
-0.0614333 -0.0364631 0
-0.0691483 -0.0612531 0
-0.0791726 -0.0879048 0
-0.0915653 -0.11832 0
-0.105539 -0.154362 0
-0.118943 -0.196651 0
-0.128036 -0.242707 0
-0.1279 -0.284851 0
-0.113765 -0.308428 0
-0.083635 -0.291439 0
-0.0429156 -0.209635 0
-0.0106145 -0.0625192 0
0.000184942 0.0353967 0
1.88631e-05 0.0825984 0
-0.00133924 0.111174 0
-0.0037071 0.127936 0
-0.00646527 0.138385 0
-0.009093 0.145603 0
-0.0112929 0.150808 0
-0.0129493 0.154195 0
-0.0140591 0.155515 0
-0.0146852 0.154386 0
-0.0149304 0.150434 0
-0.0149253 0.14337 0
-0.014822 0.13303 0
-0.0147889 0.119414 0
-0.0150048 0.102716 0
-0.0156522 0.0833379 0
-0.0169105 0.0618837 0
-0.0189533 0.0391123 0
-0.0219576 0.0158349 0
-0.0261383 -0.00726433 0
-0.0317978 -0.0298962 0
-0.0393826 -0.0525203 0
-0.0494858 -0.0765101 0
-0.0626426 -0.104165 0
-0.0788052 -0.13838 0
-0.0965336 -0.1815 0
-0.11231 -0.232988 0
-0.120577 -0.28644 0
-0.114891 -0.32666 0
-0.0906569 -0.32757 0
-0.0505265 -0.254354 0
-0.0137471 -0.0868808 0
0.000353579 0.0348582 0
0.000796147 0.0828604 0
0.000485719 0.11258 0
-0.00056998 0.129953 0
-0.00182416 0.140381 0
-0.00275107 0.147162 0
-0.00304963 0.151747 0
-0.00262141 0.154484 0
-0.00150116 0.155216 0
0.000195341 0.153615 0
0.0023007 0.149345 0
0.00461152 0.142143 0
0.00689879 0.131866 0
0.00891639 0.118527 0
0.0104106 0.102325 0
0.0111323 0.0836549 0
0.0108531 0.0631043 0
0.00938189 0.0414059 0
0.00657822 0.0193493 0
0.00234536 -0.00236511 0
-0.003432 -0.0233586 0
-0.0110047 -0.0439004 0
-0.0208989 -0.0651326 0
-0.0339291 -0.0893559 0
-0.0508153 -0.120141 0
-0.0712123 -0.161614 0
-0.0924464 -0.215863 0
-0.108875 -0.27887 0
-0.112626 -0.336165 0
-0.0962369 -0.358688 0
-0.0586064 -0.300997 0
-0.0174979 -0.118126 0
0.000415845 0.0340888 0
0.00119722 0.0824059 0
0.00165738 0.112885 0
0.0017602 0.130601 0
0.0019688 0.140778 0
0.00275532 0.146905 0
0.00438998 0.150668 0
0.00693649 0.152589 0
0.0103115 0.152616 0
0.0143385 0.150491 0
0.0187821 0.14592 0
0.0233676 0.138672 0
0.0277933 0.128624 0
0.0317412 0.115803 0
0.0348904 0.100405 0
0.0369335 0.0828094 0
0.0375985 0.0635639 0
0.0366735 0.0433424 0
0.0340291 0.0228608 0
0.0296309 0.00275449 0
0.0235169 -0.0165867 0
0.0156728 -0.0352555 0
0.00583769 -0.0540481 0
-0.00673122 -0.0748412 0
-0.0232075 -0.101293 0
-0.0444406 -0.138832 0
-0.0692748 -0.192576 0
-0.0928468 -0.262156 0
-0.10645 -0.335526 0
-0.0997312 -0.382435 0
-0.0668336 -0.347779 0
-0.0218314 -0.157455 0
0.000330147 0.0333428 0
0.00107911 0.0816216 0
0.00192239 0.112366 0
0.00294623 0.129994 0
0.00453605 0.139587 0
0.00704813 0.144797 0
0.01066 0.14753 0
0.0153628 0.148478 0
0.0210075 0.147707 0
0.0273523 0.145028 0
0.0340957 0.140195 0
0.040898 0.133008 0
0.0473944 0.123366 0
0.0532087 0.1113 0
0.0579687 0.0969996 0
0.0613264 0.0808143 0
0.0629832 0.0632372 0
0.0627163 0.0448611 0
0.0604012 0.0263016 0
0.0560196 0.00809346 0
0.0496382 -0.00943024 0
0.041342 -0.0262717 0
0.031105 -0.0429598 0
0.0186259 -0.0608815 0
0.00298446 -0.0831348 0
-0.0175087 -0.115264 0
-0.0436654 -0.165154 0
-0.0724991 -0.237173 0
-0.0955709 -0.323834 0
-0.100076 -0.39634 0
-0.074539 -0.392308 0
-0.02659 -0.205876 0
1.73701e-05 0.0329953 0
0.00020718 0.0810303 0
0.000932356 0.111389 0
0.00259261 0.128287 0
0.00548012 0.136817 0
0.00975359 0.140782 0
0.015418 0.142268 0
0.0223402 0.142114 0
0.030282 0.140485 0
0.0389316 0.137256 0
0.0479281 0.132227 0
0.056878 0.125224 0
0.0653697 0.116162 0
0.0729867 0.105073 0
0.0793256 0.092128 0
0.0840176 0.0776361 0
0.0867538 0.0620224 0
0.0873095 0.0457871 0
0.0855621 0.0294381 0
0.0814919 0.0134088 0
0.0751603 -0.00203259 0
0.066672 -0.0168848 0
0.0560992 -0.031537 0
0.0433573 -0.0470834 0
0.0279896 -0.0659238 0
0.00881504 -0.0928075 0
-0.0163853 -0.136253 0
-0.0477555 -0.205869 0
-0.0788168 -0.301005 0
-0.0955427 -0.397938 0
-0.0804426 -0.431347 0
-0.0313816 -0.263848 0
-0.000663916 0.0336418 0
-0.00180819 0.0813382 0
-0.00181599 0.110363 0
0.000222421 0.125613 0
0.00439483 0.13243 0
0.0105373 0.134753 0
0.0183902 0.13478 0
0.0276382 0.133432 0
0.0379309 0.130933 0
0.0488856 0.127204 0
0.0600927 0.122076 0
0.0711228 0.115395 0
0.0815369 0.107085 0
0.0908998 0.0971696 0
0.0987978 0.0857942 0
0.10486 0.0732158 0
0.108781 0.0597849 0
0.110345 0.0459058 0
0.10943 0.0319813 0
0.106018 0.0183483 0
0.100168 0.0052092 0
0.0919841 -0.00745448 0
0.0815608 -0.0199711 0
0.0688996 -0.0332461 0
0.053757 -0.0492508 0
0.0353943 -0.0719434 0
0.0122027 -0.108725 0
-0.0184275 -0.171397 0
-0.0545915 -0.268252 0
-0.0834712 -0.385085 0
-0.0822586 -0.460513 0
-0.0353863 -0.330616 0
-0.00195564 0.0362614 0
-0.00555641 0.0834637 0
-0.00699176 0.109681 0
-0.00471147 0.121977 0
0.000921598 0.126261 0
0.00919435 0.126507 0
0.0194718 0.124896 0
0.0312153 0.122325 0
0.0439515 0.119011 0
0.0572367 0.114886 0
0.0706315 0.109792 0
0.0836929 0.103588 0
0.0959784 0.0961929 0
0.107057 0.0876197 0
0.116526 0.077977 0
0.124032 0.0674654 0
0.129288 0.0563574 0
0.132095 0.0449632 0
0.132347 0.0335864 0
0.13003 0.0224726 0
0.125209 0.0117549 0
0.118004 0.00138876 0
0.108531 -0.00891787 0
0.0968077 -0.0199148 0
0.0826418 -0.0332735 0
0.0654659 -0.0523822 0
0.0440228 -0.0836519 0
0.0160434 -0.137861 0
-0.0209098 -0.228671 0
-0.0600528 -0.356644 0
-0.0761421 -0.474078 0
-0.0370316 -0.403034 0
-0.00430958 0.0425266 0
-0.0119479 0.0884377 0
-0.0153013 0.109496 0
-0.0125038 0.117084 0
-0.00488044 0.117897 0
0.0060414 0.115676 0
0.0191455 0.112345 0
0.0336554 0.108622 0
0.0489991 0.104633 0
0.0647014 0.100276 0
0.0803233 0.0953857 0
0.0954374 0.0898186 0
0.109625 0.0834886 0
0.122485 0.0763853 0
0.13365 0.0685779 0
0.142802 0.0602074 0
0.149692 0.0514685 0
0.154155 0.0425819 0
0.156112 0.0337593 0
0.155566 0.0251628 0
0.152591 0.0168606 0
0.147304 0.00877466 0
0.139848 0.000625276 0
0.13029 -0.0081763 0
0.118422 -0.0189785 0
0.103656 -0.0347347 0
0.0848025 -0.0610033 0
0.0596062 -0.107333 0
0.024779 -0.187418 0
-0.0202741 -0.313701 0
-0.0559928 -0.465213 0
-0.0334684 -0.473534 0
-0.0083793 0.0552155 0
-0.0218562 0.096864 0
-0.0265522 0.109119 0
-0.021844 0.109956 0
-0.010903 0.106461 0
0.00369119 0.101596 0
0.0203521 0.0966605 0
0.0381431 0.092006 0
0.0564667 0.0875822 0
0.0748746 0.0832168 0
0.092974 0.0787234 0
0.110392 0.0739492 0
0.126766 0.0687962 0
0.141754 0.0632294 0
0.155047 0.057276 0
0.166387 0.0510174 0
0.17558 0.0445744 0
0.182508 0.0380852 0
0.187127 0.0316803 0
0.189463 0.0254516 0
0.189593 0.0194182 0
0.187613 0.0134829 0
0.183612 0.00737421 0
0.177654 0.000590661 0