# vtk DataFile Version 2.0
Lid-driven cavity
ASCII
DATASET STRUCTURED_POINTS
DIMENSIONS 32 32 1
ORIGIN 0.015625 0.015625 0
SPACING 0.03125 0.03125 1
POINT_DATA 1024
SCALARS pressure double 1
LOOKUP_TABLE default
7.38241
7.36003
7.33723
7.32562
7.32948
7.34965
7.386
7.43855
7.50774
7.5943
7.69896
7.82205
7.96317
8.12086
8.2923
8.47325
8.65804
8.83957
9.0098
9.16044
9.28399
9.37499
9.43095
9.45285
9.44501
9.41438
9.3694
9.31864
9.27004
9.23086
9.20711
9.20201
7.4048
7.38155
7.36467
7.35907
7.36701
7.3892
7.4259
7.4775
7.54463
7.62807
7.72851
7.84628
7.981
8.13132
8.29463
8.46694
8.64298
8.81602
8.97847
9.12241
9.24073
9.3283
9.38291
9.40582
9.40139
9.37626
9.3384
9.29564
9.25474
9.22165
9.20121
9.19689
7.42756
7.39587
7.37867
7.37548
7.38575
7.40905
7.44538
7.4952
7.55933
7.63876
7.73441
7.84686
7.97606
8.12101
8.27947
8.44777
8.62069
8.79158
8.95273
9.09596
9.21378
9.30074
9.35445
9.37624
9.37097
9.34577
9.30871
9.26772
9.22902
9.19771
9.17785
9.17288
7.43447
7.39282
7.37268
7.36957
7.38039
7.40344
7.4382
7.4851
7.54512
7.61955
7.70969
7.8166
7.94076
8.08175
8.23794
8.40601
8.5805
8.75459
8.92017
9.06833
9.19069
9.28086
9.33574
9.35639
9.34799
9.31876
9.27789
9.23363
9.19255
9.15928
9.13741
9.13017
7.41321
7.36214
7.33828
7.33389
7.34378
7.36513
7.39696
7.43962
7.49426
7.56251
7.64617
7.74686
7.86578
8.00332
8.15865
8.32919
8.50887
8.69077
8.86621
9.02536
9.15847
9.25755
9.31804
9.34005
9.32877
9.29335
9.24473
9.19304
9.14521
9.10632
9.07988
9.06906
7.35341
7.29395
7.26635
7.25993
7.26773
7.28603
7.31351
7.35044
7.39817
7.45865
7.53417
7.62703
7.73925
7.87216
8.02607
8.19967
8.3866
8.57976
8.77024
8.94724
9.09929
9.216
9.29023
9.32
9.30945
9.26834
9.2096
9.14597
9.08696
9.03843
9.00439
8.98848
7.24563
7.1788
7.14767
7.13871
7.14343
7.15738
7.17893
7.20831
7.24696
7.29712
7.36152
7.44311
7.54482
7.66916
7.81783
7.99138
8.18467
8.3904
8.60015
8.80258
8.98427
9.13161
9.23336
9.28344
9.28304
9.2411
9.1724
9.09344
9.01795
8.95467
8.90894
8.88558
7.08095
7.00763
6.97311
6.96111
6.96168
6.96973
6.98332
7.00253
7.02875
7.06432
7.11227
7.17617
7.2599
7.36739
7.50221
7.6671
7.86071
8.07612
8.30686
8.54195
8.76633
8.96241
9.11305
9.20522
9.23382
9.20401
9.13084
9.03521
8.93757
8.85267
8.78989
8.75535
6.85092
6.77184
6.73388
6.71805
6.71304
6.71305
6.71571
6.72074
6.72921
6.74326
6.76598
6.80141
6.85448
6.93086
7.03655
7.17731
7.3571
7.57231
7.82047
8.09286
8.37377
8.64148
8.87112
9.03924
9.12952
9.13811
9.07632
8.96842
8.84422
8.72964
8.64158
8.59027
6.5477
6.46351
6.42175
6.40084
6.38808
6.37689
6.36422
6.34908
6.33179
6.31387
6.29809
6.28876
6.29191
6.31535
6.36836
6.46096
6.6026
6.7975
7.05061
7.35866
7.70748
8.07204
8.41866
8.70991
8.91219
9.00476
8.98751
8.88355
8.73311
8.57959
8.45538
8.37972
6.16447
6.07575
6.02945
6.00154
5.97794
5.95108
5.91689
5.87319
5.81899
5.75461
5.682
5.60542
5.53202
5.47218
5.43943
5.44954
5.51879
5.66068
5.89308
6.22417
6.64475
7.12882
7.63429
8.10725
8.49057
8.73668
8.82214
8.75873
8.59373
8.39428
8.22076
8.1094
5.69596
5.60325
5.55128
5.51374
5.47518
5.42679
5.36306
5.28001
5.17469
5.04547
4.89287
4.72067
4.53703
4.35532
4.19427
4.07702
4.02893
4.0739
4.24367
4.56977
5.05247
5.66896
6.3715
7.08959
7.73796
8.23189
8.50898
8.55255
8.40553
8.16079
7.9226
7.76036
5.13903
5.0429
4.9838
4.93343
4.87495
4.79808
4.69536
4.56037
4.38744
4.17221
3.913
3.61255
3.27978
2.93129
2.59184
2.29359
2.07337
1.968
2.01867
2.29392
2.81022
3.55409
4.47772
5.49766
6.49984
7.35446
7.94329
8.19729
8.13244
7.85938
7.54142
7.30877
4.49334
4.39442
4.32659
4.25995
4.17627
4.06354
3.91188
3.71184
3.4542
3.13107
2.73776
2.27525
1.75282
1.19021
0.618811
0.0810451
-0.372542
-0.688716
-0.818289
-0.658652
-0.159388
0.681739
1.82479
3.18147
4.61421
5.9463
6.9898
7.59569
7.7181
7.46116
7.05454
6.72679
3.7618
3.66079
3.58283
3.49677
3.38308
3.22777
3.0182
2.74128
2.3836
1.93294
1.38079
0.725644
-0.023554
-0.844246
-1.69838
-2.53258
-3.28117
-3.87263
-4.2395
-4.27119
-3.8596
-2.97951
-1.65355
0.0372842
1.9445
3.85204
5.49702
6.62503
7.08385
6.92589
6.43589
5.98256
2.95067
2.84845
2.7595
2.65191
2.50487
2.30233
2.02858
1.66651
1.19799
0.605871
-0.122867
-0.993021
-1.99671
-3.10929
-4.28651
-5.46414
-6.56085
-7.48515
-8.14665
-8.43633
-8.19609
-7.36056
-5.92626
-3.95261
-1.57997
0.955279
3.3241
5.15193
6.13329
6.20236
5.65792
5.04247
2.06928
1.96688
1.86711
1.73769
1.55661
1.30571
0.966077
0.516367
-0.0665066
-0.805007
-1.71716
-2.8117
-4.08265
-5.50423
-7.02709
-8.57711
-10.058
-11.3583
-12.3635
-12.9591
-12.971
-12.2787
-10.843
-8.68863
-5.92528
-2.7802
0.3779
3.05895
4.76652
5.23486
4.6977
3.87991
1.12916
1.02776
0.918789
0.769886
0.557871
0.262405
-0.138646
-0.670806
-1.36213
-2.24046
-3.32903
-4.64095
-6.17292
-7.89917
-9.76678
-11.6936
-13.5704
-15.2677
-16.6482
-17.5816
-17.9008
-17.4494
-16.1364
-13.9434
-10.9288
-7.27512
-3.34722
0.280353
2.90562
3.97928
3.55107
2.49238
0.142758
0.0436027
-0.0711463
-0.233748
-0.468805
-0.798993
-1.24963
-1.85024
-2.63359
-3.63262
-4.87567
-6.38035
-8.14662
-10.1499
-12.3356
-14.6161
-16.8722
-18.96
-20.7229
-22.0093
-22.6623
-22.5229
-21.453
-19.3808
-16.3009
-12.318
-7.7379
-3.16025
0.529137
2.4311
2.25987
0.934712
-0.878383
-0.974152
-1.08906
-1.25543
-1.49997
-1.84818
-2.32867
-2.97474
-3.82338
-4.91207
-6.27373
-7.93028
-9.88523
-12.1163
-14.5691
-17.1536
-19.7447
-22.1884
-24.3141
-25.9513
-26.9435
-27.1446
-26.4091
-24.6041
-21.6588
-17.5775
-12.5513
-7.12202
-2.29236
0.66196
0.952583
-0.631615
-1.92568
-2.01722
-2.1241
-2.27942
-2.51347
-2.85573
-3.33856
-3.9989
-4.87737
-6.01511
-7.44872
-9.20378
-11.2873
-13.6799
-16.3295
-19.1468
-22.0053
-24.7464
-27.191
-29.1561
-30.4763
-31.0173
-30.6517
-29.2222
-26.5867
-22.6465
-17.4348
-11.3414
-5.37215
-1.14489
-0.108614
-1.87784
-2.99607
-3.08294
-3.17042
-3.29399
-3.49036
-3.79526
-4.24591
-4.88293
-5.74984
-6.89028
-8.34318
-10.1366
-12.2804
-14.7587
-17.5229
-20.4877
-23.5297
-26.4915
-29.192
-31.4421
-33.0655
-33.9293
-33.9228
-32.9148
-30.7078
-27.1096
-21.9769
-15.4578
-8.40781
-2.67441
-0.485973
-2.24381
-4.09492
-4.17714
-4.22937
-4.29301
-4.41629
-4.64503
-5.02323
-5.59546
-6.40725
-7.50345
-8.92412
-10.6985
-12.8382
-15.3293
-18.1271
-21.1506
-24.2829
-27.3738
-30.2488
-32.7219
-34.6111
-35.7698
-36.0908
-35.477
-33.7442
-30.6142
-25.7757
-19.0669
-11.0129
-3.48667
0.45914
-0.874785
-5.23931
-5.3173
-5.31169
-5.27711
-5.28208
-5.38862
-5.65034
-6.11612
-6.83286
-7.84523
-9.19251
-10.9032
-12.9883
-15.4348
-18.1996
-21.2061
-24.3434
-27.4704
-30.4237
-33.0293
-35.1144
-36.5262
-37.1403
-36.8552
-35.5477
-32.921
-28.5028
-21.7852
-12.7712
-3.05258
3.5705
3.44583
-6.46588
-6.53841
-6.4404
-6.25432
-6.08362
-6.01466
-6.1134
-6.43296
-7.01998
-7.91683
-9.15981
-10.7745
-12.7698
-15.1316
-17.8175
-20.7537
-23.8348
-26.9281
-29.8813
-32.5333
-34.7257
-36.312
-37.1631
-37.1524
-36.1473
-33.9209
-29.932
-23.2872
-13.2801
-0.798003
9.88929
12.387
-7.84458
-7.9039
-7.65525
-7.23999
-6.81936
-6.51434
-6.40376
-6.5425
-6.9737
-7.73431
-8.85504
-10.3565
-12.2437
-14.5003
-17.0833
-19.9208
-22.9121
-25.9313
-28.8353
-31.4736
-33.6989
-35.3749
-36.3747
-36.5609
-35.76
-33.7214
-29.9156
-23.2757
-12.1217
3.90259
20.6688
28.2248
-9.50867
-9.52466
-9.01873
-8.25601
-7.48903
-6.88066
-6.51846
-6.45123
-6.71254
-7.32965
-8.3247
-9.71138
-11.4895
-13.6393
-16.1169
-18.8513
-21.7452
-24.6784
-27.5145
-30.1101
-32.3235
-34.0226
-35.0851
-35.3642
-34.6512
-32.6051
-28.6059
-21.3644
-8.68105
11.9003
37.4935
54.1263
-11.7311
-11.5996
-10.6228
-9.32351
-8.08508
-7.10312
-6.45676
-6.1726
-6.26504
-6.7462
-7.62677
-8.91193
-10.5954
-12.6537
-15.0409
-17.687
-20.497
-23.3548
-26.1288
-28.679
-30.8645
-32.5487
-33.5989
-33.8722
-33.111
-30.8553
-26.2398
-17.5541
-1.78173
24.7878
62.6611
94.621
-15.1309
-14.4868
-12.576
-10.4275
-8.55998
-7.14347
-6.2005
-5.70933
-5.65257
-6.02157
-6.81314
-8.02307
-9.63875
-11.6326
-13.9569
-16.5414
-19.293
-22.0984
-24.8286
-27.3448
-29.5027
-31.1548
-32.1453
-32.2951
-31.3475
-28.6431
-22.9086
-11.7408
9.19763
45.645
100.096
156.084
-21.2651
-18.7378
-14.8508
-11.3601
-8.70559
-6.84172
-5.63378
-4.98177
-4.82458
-5.12841
-5.87522
-7.05139
-8.63816
-10.6041
-12.8995
-15.4538
-18.175
-20.9515
-23.6558
-26.1483
-28.2794
-29.8866
-30.7831
-30.7296
-29.38
-25.9533
-18.4418
-3.36709
25.4846
77.0732
158.093
245.812
-34.111
-24.2954
-16.3971
-11.106
-7.68086
-5.52165
-4.23201
-3.58798
-3.47311
-3.82962
-4.62863
-5.8512
-7.47579
-9.46956
-11.7826
-14.3451
-17.0665
-19.837
-22.5304
-25.0059
-27.1072
-28.6552
-29.4257
-29.1012
-27.1733
-22.6106
-12.5429
7.86826
47.3834
120.692
249.174
428.691
-69.514
-24.6313
-10.4318
-5.13722
-2.69485
-1.4388
-0.84607
-0.728597
-1.01601
-1.68481
-2.72918
-4.14556
-5.92289
-8.03584
-10.4404
-13.0716
-15.8435
-18.65
-21.3674
-23.8549
-25.9513
-27.4626
-28.1296
-27.5544
-25.0375
-19.1228
-6.44862
18.8418
67.5917
161.088
350.162
776.071
VECTORS velocity double
5.11065e-05 -5.11066e-05 0
8.7606e-05 1.46069e-05 0
-3.38264e-05 0.000106825 0
-0.000319397 0.000178745 0
-0.000723876 0.000225734 0
-0.00120547 0.000255859 0
-0.00173825 0.000276924 0
-0.00230781 0.000292631 0
-0.00290319 0.000302748 0
-0.00351039 0.000304457 0
-0.00410853 0.000293678 0
-0.0046683 0.000266091 0
-0.00515233 0.000217939 0
-0.00551706 0.000146791 0
-0.00571623 5.23835e-05 0
-0.00570611 -6.25119e-05 0
-0.00545228 -0.00019131 0
-0.00493678 -0.000324198 0
-0.00416449 -0.000448085 0
-0.00316892 -0.000547489 0
-0.00201484 -0.000606585 0
-0.000795985 -0.000612275 0
0.000374127 -0.000557837 0
0.00137836 -0.0004464 0
0.00211569 -0.000290923 0
0.00251972 -0.00011311 0
0.00257171 6.11133e-05 0
0.00230243 0.000208168 0
0.00178382 0.000310448 0
0.001127 0.000346367 0
0.000494699 0.000285935 0
0.000104382 0.000104382 0
-2.04139e-05 -8.17993e-05 0
-0.000245985 0.000234371 0
-0.000851537 0.000614046 0
-0.00180604 0.000911599 0
-0.00302048 0.00111179 0
-0.00441103 0.00124195 0
-0.00591658 0.00132917 0
-0.00749295 0.00138631 0
-0.00910049 0.001412 0
-0.0106934 0.00139533 0
-0.0122134 0.00132095 0
-0.013588 0.00117314 0
-0.0147322 0.000939142 0
-0.015554 0.00061209 0
-0.0159617 0.000194002 0
-0.0158748 -0.0003012 0
-0.015236 -0.000845176 0
-0.0140225 -0.0013994 0
-0.0122537 -0.00191399 0
-0.0100001 -0.00233076 0
-0.00738746 -0.00258998 0
-0.00459458 -0.00264062 0
-0.00184147 -0.00245272 0
0.000632596 -0.00202982 0
0.00260399 -0.00141621 0
0.00390478 -0.000692646 0
0.00445494 3.84907e-05 0
0.00428142 0.000673589 0
0.0035139 0.00113117 0
0.00237179 0.00132457 0
0.001164 0.00114782 0
0.000294026 0.00050279 0
-0.000155095 9.37094e-05 0
-0.000794329 0.000923666 0
-0.00203766 0.00177364 0
-0.00375704 0.00242588 0
-0.00581341 0.00286832 0
-0.00809386 0.00315643 0
-0.0105152 0.0033416 0
-0.013012 0.00344697 0
-0.0155211 0.00346805 0
-0.0179711 0.00338219 0
-0.0202759 0.00315887 0
-0.0223343 0.00276823 0
-0.024034 0.00218798 0
-0.0252582 0.00140918 0
-0.0258951 0.00044157 0
-0.0258495 -0.000681344 0
-0.0250546 -0.00189868 0
-0.0234815 -0.00313254 0
-0.0211479 -0.00428327 0
-0.0181285 -0.00523442 0
-0.014563 -0.00586441 0
-0.0106577 -0.00606444 0
-0.00667849 -0.00576119 0
-0.00293223 -0.00494166 0
0.000266589 -0.00367459 0
0.00264645 -0.00211492 0
0.00403791 -0.000480852 0
0.00441576 0.0009886 0
0.00391054 0.0020889 0
0.00278819 0.0026313 0
0.00143481 0.00240225 0
0.00037816 0.00117498 0
-0.000313716 0.00056252 0
-0.00143457 0.00221494 0
-0.00339802 0.00368915 0
-0.00594206 0.00477378 0
-0.00886599 0.00550073 0
-0.0120314 0.00596989 0
-0.0153424 0.00626046 0
-0.0187219 0.00640439 0
-0.0220936 0.00639145 0
-0.0253699 0.00618511 0
-0.0284479 0.00573869 0
-0.0312097 0.00500868 0
-0.0335275 0.00396502 0
-0.0352707 0.00259947 0
-0.036315 0.000932481 0
-0.0365522 -0.000980618 0
-0.0358985 -0.00304803 0
-0.0343018 -0.00515298 0
-0.0317539 -0.00714436 0
-0.0283048 -0.00884181 0
-0.0240762 -0.0100511 0
-0.0192708 -0.0105886 0
-0.0141722 -0.0103148 0
-0.00913353 -0.00917292 0
-0.00454785 -0.00722783 0
-0.000797903 -0.00469149 0
0.00181625 -0.0019099 0
0.00316237 0.000693686 0
0.00332798 0.00272342 0
0.00259629 0.00385083 0
0.00140914 0.00372326 0
0.000383313 0.00193645 0
-0.000483067 0.0013593 0
-0.00211556 0.0041715 0
-0.0048352 0.00641569 0
-0.00823052 0.0079866 0
-0.0120355 0.00901676 0
-0.0160903 0.00967406 0
-0.0202942 0.0100712 0
-0.0245687 0.0102476 0
-0.0288333 0.0101845 0
-0.0329941 0.00982921 0
-0.0369394 0.00911795 0
-0.0405413 0.00799318 0
-0.0436601 0.00641706 0
-0.046151 0.0043815 0
-0.0478721 0.00191581 0
-0.0486914 -0.000907304 0
-0.0484931 -0.00397338 0
-0.047184 -0.00713342 0
-0.0447087 -0.0101871 0
-0.0410706 -0.0128863 0
-0.0363524 -0.0149534 0
-0.0307325 -0.0161116 0
-0.0244953 -0.0161276 0
-0.0180286 -0.0148654 0
-0.0118028 -0.0123468 0
-0.00632179 -0.00880347 0
-0.00204094 -0.00469293 0
0.000738118 -0.000648455 0
0.00198463 0.00265343 0
0.00196968 0.00466747 0
0.00119154 0.0048719 0
0.000342707 0.00266247 0
-0.000657816 0.00250019 0
-0.00281273 0.00681803 0
-0.0062966 0.00997268 0
-0.0105474 0.0120757 0
-0.0152386 0.0134237 0
-0.0201961 0.0142794 0
-0.0253225 0.0147962 0
-0.0305452 0.0150198 0
-0.0357877 0.0149194 0
-0.0409554 0.0144228 0
-0.0459315 0.0134459 0
-0.0505781 0.0119138 0
-0.05474 0.0097771 0
-0.0582507 0.00702305 0
-0.0609388 0.00368351 0
-0.0626347 -0.000159743 0
-0.0631781 -0.00437594 0
-0.0624243 -0.00879366 0
-0.0602589 -0.0131676 0
-0.0566248 -0.0171781 0
-0.0515504 -0.0204542 0
-0.0451736 -0.0226075 0
-0.0377605 -0.0232821 0
-0.0297163 -0.0222219 0
-0.0215786 -0.0193538 0
-0.0139796 -0.0148764 0
-0.00756088 -0.00931954 0
-0.00283649 -0.00352529 0
-3.98473e-05 0.00148711 0
0.00100741 0.00480149 0
0.000852269 0.00567116 0
0.00027957 0.00328474 0
-0.000833979 0.00399198 0
-0.00350865 0.0101558 0
-0.00774564 0.0143557 0
-0.0128405 0.0170383 0
-0.0184165 0.0187283 0
-0.0242943 0.0198101 0
-0.0303865 0.0204842 0
-0.0366323 0.0208005 0
-0.0429625 0.0207113 0
-0.0492833 0.0201193 0
-0.0554714 0.0189136 0
-0.0613745 0.0169957 0
-0.0668146 0.0142971 0
-0.0715933 0.0107925 0
-0.0754994 0.00650833 0
-0.0783166 0.00152849 0
-0.0798339 -0.0040036 0
-0.0798538 -0.00989976 0
-0.0782022 -0.0158785 0
-0.0747557 -0.0215479 0
-0.069478 -0.0264366 0
-0.0624488 -0.0300311 0
-0.0538921 -0.0318283 0
-0.0442012 -0.0314108 0
-0.0339527 -0.028551 0
-0.0238925 -0.0233384 0
-0.014865 -0.0163038 0
-0.00766037 -0.00847003 0
-0.00279097 -0.00123419 0
-0.000273327 0.00395788 0
0.000422605 0.00597397 0
0.000206459 0.00377077 0
-0.00100655 0.00583251 0
-0.00418424 0.0141676 0
-0.0091453 0.019542 0
-0.015057 0.0228586 0
-0.0215051 0.0249321 0
-0.0283129 0.0262918 0
-0.0354078 0.0271896 0
-0.0427428 0.0276758 0
-0.0502553 0.0276787 0
-0.0578501 0.0270676 0
-0.0653932 0.0256966 0
-0.0727121 0.0234347 0
-0.0795996 0.0201856 0
-0.0858198 0.015903 0
-0.091117 0.0106011 0
-0.095226 0.00436191 0
-0.0978851 -0.0026607 0
-0.0988512 -0.0102566 0
-0.0978995 -0.0181249 0
-0.0948415 -0.0258059 0
-0.089569 -0.0327288 0
-0.082087 -0.0382501 0
-0.0725489 -0.0417041 0
-0.0612962 -0.0424786 0
-0.0488976 -0.0401303 0
-0.0361688 -0.0345481 0
-0.0241398 -0.0261507 0
-0.0139162 -0.0160513 0
-0.00639973 -0.00603872 0
-0.00193981 0.00178484 0
-0.000111221 0.00562248 0
0.000124977 0.00410221 0
-0.00116857 0.00800764 0
-0.00481464 0.0188163 0
-0.0104489 0.0254887 0
-0.0171287 0.0295035 0
-0.0244141 0.0320207 0
-0.0321364 0.0337333 0
-0.0402389 0.0349456 0
-0.048686 0.0357019 0
-0.0574192 0.0358982 0
-0.0663374 0.0353611 0
-0.0752917 0.0339005 0
-0.0840862 0.0313442 0
-0.092483 0.0275603 0
-0.10021 0.0224753 0
-0.10697 0.0160864 0
-0.112456 0.00847154 0
-0.116362 -0.000205298 0
-0.118407 -0.00970107 0
-0.118328 -0.0197107 0
-0.115884 -0.0297227 0
-0.110891 -0.0390769 0
-0.103268 -0.0470073 0
-0.0930686 -0.0526845 0
-0.0805376 -0.0552819 0
-0.0661737 -0.0540895 0
-0.050792 -0.0486994 0
-0.0355481 -0.0392724 0
-0.0218546 -0.0268467 0
-0.0110959 -0.0135184 0
-0.00412457 -0.0021667 0
-0.000793269 0.00441413 0
2.69533e-05 0.00425414 0
-0.00131084 0.010487 0
-0.00536785 0.0240399 0
-0.0115965 0.0321279 0
-0.0189659 0.0369135 0
-0.027019 0.0399492 0
-0.0355964 0.0421046 0
-0.0446544 0.0437347 0
-0.0541648 0.0448704 0
-0.0640679 0.045366 0
-0.0742536 0.0449971 0
-0.0845569 0.043522 0
-0.0947601 0.0407205 0
-0.1046 0.0364203 0
-0.113774 0.030517 0
-0.121958 0.022989 0
-0.128813 0.0139092 0
-0.134002 0.0034523 0
-0.137212 -0.00810435 0
-0.138155 -0.0204423 0
-0.136559 -0.0330323 0
-0.132173 -0.0451455 0
-0.12482 -0.0559146 0
-0.114434 -0.0643631 0
-0.101117 -0.0694512 0
-0.0852298 -0.0701712 0
-0.0674961 -0.0657332 0
-0.0490971 -0.0558815 0
-0.0316802 -0.0413479 0
-0.0171399 -0.0243162 0
-0.00702223 -0.00845799 0
-0.00171443 0.00206631 0
-0.000106894 0.0041742 0
-0.00142243 0.0132203 0
-0.00580594 0.0297472 0
-0.0125168 0.0393601 0
-0.0204596 0.0449935 0
-0.0291653 0.048628 0
-0.0384804 0.0513184 0
-0.0483683 0.0534667 0
-0.0588025 0.055083 0
-0.0697185 0.0559726 0
-0.080996 0.0558539 0
-0.0924566 0.054429 0
-0.103867 0.0514272 0
-0.114948 0.0466342 0
-0.125384 0.0399139 0
-0.134834 0.0312257 0
-0.142944 0.0206375 0
-0.149364 0.0083337 0
-0.153758 -0.00538323 0
-0.155831 -0.0201461 0
-0.155301 -0.0354553 0
-0.151867 -0.0505426 0
-0.145262 -0.0644746 0
-0.135287 -0.0761652 0
-0.121865 -0.0843882 0
-0.10515 -0.0878356 0
-0.0856751 -0.0852775 0
-0.064518 -0.0758932 0
-0.0434296 -0.0598415 0
-0.0247528 -0.0390399 0
-0.0108589 -0.0177459 0
-0.00298511 -0.00182742 0
-0.00029601 0.00377129 0
-0.00149175 0.0161345 0
-0.00608879 0.0358136 0
-0.0131338 0.0470495 0
-0.0214925 0.0536056 0
-0.0306849 0.0579139 0
-0.0405565 0.0612193 0
-0.0510701 0.0639673 0
-0.0621953 0.0661418 0
-0.0738608 0.0674952 0
-0.0859382 0.0676862 0
-0.0982411 0.0663601 0
-0.110531 0.0631965 0
-0.122525 0.0579404 0
-0.133908 0.050426 0
-0.14434 0.0405954 0
-0.153474 0.028512 0
-0.160963 0.0143686 0
-0.166477 -0.00151133 0
-0.169725 -0.0186957 0
-0.170427 -0.0367344 0
-0.168265 -0.0548593 0
-0.162905 -0.0721224 0
-0.154011 -0.0873867 0
-0.141305 -0.0992949 0
-0.124677 -0.106272 0
-0.104365 -0.106628 0
-0.0812034 -0.098862 0
-0.0568697 -0.0822948 0
-0.034002 -0.0581311 0
-0.0158119 -0.0307386 0
-0.00471973 -0.00780067 0
-0.000569784 0.0029055 0
-0.00150826 0.0191345 0
-0.00617954 0.0420819 0
-0.0133769 0.0550235 0
-0.0219545 0.062568 0
-0.0314195 0.0676088 0
-0.0416071 0.0715837 0
-0.052471 0.0749804 0
-0.0639728 0.0777556 0
-0.0760341 0.0796082 0
-0.0885225 0.0801389 0
-0.101252 0.0789394 0
-0.113988 0.0756431 0
-0.126459 0.0699589 0
-0.138364 0.0616955 0
-0.149387 0.0507808 0
-0.159202 0.0372759 0
-0.167492 0.0213833 0
-0.173952 0.00344797 0
-0.178309 -0.0160488 0
-0.180313 -0.0366762 0
-0.179672 -0.05772 0
-0.176012 -0.0782819 0
-0.16888 -0.097253 0
-0.157785 -0.11323 0
-0.142308 -0.124442 0
-0.122308 -0.128769 0
-0.0982265 -0.123965 0
-0.0714687 -0.108283 0
-0.0447422 -0.0817366 0
-0.0219758 -0.0480897 0
-0.00702535 -0.0164922 0
-0.000956977 0.00137874 0
-0.00146438 0.0221072 0
-0.00605086 0.048367 0
-0.0131923 0.0630772 0
-0.0217605 0.0716602 0
-0.031246 0.077467 0
-0.0414634 0.0821305 0
-0.0523497 0.0861839 0
-0.0638551 0.0895593 0
-0.0758959 0.0919066 0
-0.0883406 0.0927736 0
-0.101011 0.091704 0
-0.113688 0.0882917 0
-0.126122 0.0822158 0
-0.138044 0.0732656 0
-0.149172 0.0613611 0
-0.159227 0.0465662 0
-0.167939 0.0290954 0
-0.175056 0.00931266 0
-0.180335 -0.0122766 0
-0.183592 -0.0351885 0
-0.184607 -0.0588334 0
-0.183005 -0.0824308 0
-0.178248 -0.104994 0
-0.169646 -0.125186 0
-0.156453 -0.141156 0
-0.138074 -0.150433 0
-0.114427 -0.15003 0
-0.0864347 -0.136968 0
-0.0566022 -0.109611 0
-0.0293253 -0.0702585 0
-0.00998251 -0.0286166 0
-0.00148476 -0.001063 0
-0.00135724 0.0249288 0
-0.00569081 0.0544654 0
-0.0125538 0.0709832 0
-0.020866 0.0806346 0
-0.0300981 0.0872102 0
-0.0400343 0.092541 0
-0.0505878 0.0972133 0
-0.0616955 0.101143 0
-0.0732709 0.103939 0
-0.085189 0.105104 0
-0.0972868 0.104142 0
-0.109369 0.100614 0
-0.121218 0.0941772 0
-0.132603 0.0846102 0
-0.143292 0.0718331 0
-0.153064 0.0559211 0
-0.161719 0.0371084 0
-0.169083 0.01578 0
-0.175 -0.0075466 0
-0.179361 -0.0323014 0
-0.182025 -0.0580409 0
-0.182681 -0.0841701 0
-0.180763 -0.109929 0
-0.175427 -0.134188 0
-0.165607 -0.155167 0
-0.150216 -0.170191 0
-0.128532 -0.175604 0
-0.100799 -0.167119 0
-0.0690174 -0.141074 0
-0.0377022 -0.097388 0
-0.0136313 -0.0449008 0
-0.00218004 -0.00472779 0
-0.00118997 0.027476 0
-0.00510703 0.0601688 0
-0.0114698 0.0785055 0
-0.019278 0.0892327 0
-0.027981 0.0965472 0
-0.0373235 0.102483 0
-0.0471895 0.107691 0
-0.0575019 0.112085 0
-0.0681747 0.115245 0
-0.0790953 0.116637 0
-0.0901229 0.115734 0
-0.101094 0.112074 0
-0.111828 0.1053 0
-0.122141 0.0951858 0
-0.131858 0.0816627 0
-0.140824 0.0648293 0
-0.148921 0.0449526 0
-0.156073 0.0224515 0
-0.162239 -0.00213469 0
-0.167401 -0.0281902 0
-0.171528 -0.055361 0
-0.174428 -0.0832943 0
-0.175585 -0.111566 0
-0.174069 -0.139404 0
-0.168545 -0.165296 0
-0.157434 -0.186564 0
-0.139299 -0.199048 0
-0.113522 -0.197185 0
-0.0812969 -0.175015 0
-0.0468364 -0.129222 0
-0.0179864 -0.0659877 0
-0.00308534 -0.00999317 0
-0.000972157 0.0296381 0
-0.00432871 0.0652803 0
-0.00998793 0.085416 0
-0.0170605 0.097203 0
-0.0249763 0.105196 0
-0.0334342 0.111635 0
-0.0422846 0.117256 0
-0.0514371 0.121986 0
-0.0608099 0.12539 0
-0.070309 0.126912 0
-0.0798239 0.126002 0
-0.089229 0.122182 0
-0.0983906 0.115088 0
-0.107176 0.104497 0
-0.115468 0.0903596 0
-0.123178 0.0728089 0
-0.130269 0.0521608 0
-0.136761 0.028887 0
-0.14273 0.00356482 0
-0.148276 -0.0231811 0
-0.153505 -0.0510149 0
-0.158395 -0.0798505 0
-0.162562 -0.109686 0
-0.165097 -0.140264 0
-0.164495 -0.170562 0
-0.158739 -0.198166 0
-0.145652 -0.218668 0
-0.123609 -0.225385 0
-0.0927027 -0.209947 0
-0.0563846 -0.165069 0
-0.0230552 -0.0923206 0
-0.00426897 -0.0173475 0
-0.000719585 0.0313299 0
-0.00340625 0.0696318 0
-0.00819427 0.0915118 0
-0.0143334 0.104319 0
-0.0212392 0.112901 0
-0.028562 0.11971 0
-0.0361163 0.125585 0
-0.0437991 0.130492 0
-0.0515377 0.133995 0
-0.059264 0.135531 0
-0.0669056 0.134538 0
-0.0743843 0.13053 0
-0.0816202 0.123138 0
-0.0885383 0.112151 0
-0.09508 0.0975393 0
-0.101219 0.0794783 0
-0.10698 0.0583432 0
-0.11246 0.0346771 0
-0.117834 0.00911778 0
-0.12332 -0.0177018 0
-0.129173 -0.0454126 0
-0.135569 -0.0741666 0
-0.142347 -0.104425 0
-0.148758 -0.136578 0
-0.15328 -0.170328 0
-0.153585 -0.203851 0
-0.146799 -0.232855 0
-0.130204 -0.249836 0
-0.102526 -0.244081 0
-0.0659728 -0.203806 0
-0.0288453 -0.12404 0
-0.00582161 -0.0274381 0
-0.000453143 0.0325026 0
-0.00240885 0.0731014 0
-0.00621043 0.0966318 0
-0.0112669 0.110395 0
-0.0169892 0.119454 0
-0.02298 0.126471 0
-0.0290176 0.132416 0
-0.0349892 0.137315 0
-0.040836 0.140757 0
-0.0465228 0.142183 0
-0.0520237 0.14103 0
-0.0573173 0.136811 0
-0.0623868 0.129162 0
-0.0672234 0.117881 0
-0.0718321 0.102959 0
-0.076243 0.0846078 0
-0.0805282 0.06326 0
-0.0848254 0.039538 0
-0.0893597 0.0141649 0
-0.0944394 -0.0121831 0
-0.100437 -0.0390803 0
-0.107716 -0.0668243 0
-0.116402 -0.0963035 0
-0.126067 -0.128624 0
-0.135393 -0.164435 0
-0.141954 -0.202878 0
-0.142319 -0.240249 0
-0.132667 -0.268689 0
-0.110144 -0.275429 0
-0.0752291 -0.243926 0
-0.0353576 -0.160919 0
-0.00784008 -0.0410998 0
-0.00019744 0.0331532 0
-0.00142113 0.0756302 0
-0.00418865 0.100672 0
-0.00807461 0.115297 0
-0.0124974 0.124697 0
-0.0170186 0.13174 0
-0.0213841 0.13755 0
-0.0254749 0.142243 0
-0.0292514 0.145453 0
-0.0327175 0.14664 0
-0.0359006 0.145256 0
-0.0388441 0.140821 0
-0.0416033 0.13298 0
-0.0442448 0.121541 0
-0.0468474 0.106511 0
-0.0495041 0.0881242 0
-0.05233 0.0668548 0
-0.0554778 0.0433882 0
-0.0591658 0.018537 0
-0.063711 -0.00693043 0
-0.0695239 -0.032522 0
-0.077087 -0.0585413 0
-0.0868193 -0.0861678 0
-0.0987398 -0.117174 0
-0.111995 -0.153304 0
-0.124388 -0.195055 0
-0.132193 -0.239902 0
-0.130599 -0.280282 0
-0.115037 -0.301921 0
-0.0837942 -0.283592 0
-0.0425699 -0.202349 0
-0.0104088 -0.0593486 0
2.0057e-05 0.0333306 0
-0.000540607 0.0772372 0
-0.00230772 0.1036 0
-0.00500584 0.118953 0
-0.00807386 0.128531 0
-0.0110458 0.135398 0
-0.0136447 0.140856 0
-0.015752 0.145135 0
-0.0173532 0.147938 0
-0.0184954 0.148763 0
-0.0192636 0.147085 0
-0.0197695 0.142442 0
-0.0201456 0.134495 0
-0.0205407 0.123063 0
-0.0211159 0.108166 0
-0.0220403 0.0900497 0
-0.0234863 0.0692013 0
-0.0256298 0.046333 0
-0.0286597 0.0223101 0
-0.03281 -0.00200807 0
-0.0384061 -0.0260353 0
-0.0459167 -0.0499544 0
-0.0559327 -0.0750064 0
-0.0689426 -0.103405 0
-0.0847975 -0.137962 0
-0.10194 -0.180862 0
-0.116791 -0.231439 0
-0.12383 -0.283301 0
-0.116772 -0.321522 0
-0.0912977 -0.320708 0
-0.050414 -0.247341 0
-0.0135871 -0.0833445 0
0.000166004 0.0331445 0
0.00011882 0.0780311 0
-0.000772368 0.105464 0
-0.0023413 0.121356 0
-0.00405657 0.130912 0
-0.0054478 0.137381 0
-0.00623373 0.142258 0
-0.00630823 0.145915 0
-0.00568881 0.14814 0
-0.00446904 0.148483 0
-0.00279129 0.146455 0
-0.000836012 0.141623 0
0.001187 0.133668 0
0.00304577 0.122427 0
0.0044941 0.107929 0
0.00528119 0.0904237 0
0.00516379 0.0703907 0
0.00392015 0.0485306 0
0.00136165 0.0257009 0
-0.00266802 0.0027811 0
-0.00831422 -0.0195821 0
-0.0158332 -0.041378 0
-0.0257544 -0.0636456 0
-0.0388689 -0.0886411 0
-0.0558027 -0.119937 0
-0.0760526 -0.161494 0
-0.0968021 -0.215206 0
-0.112353 -0.276944 0
-0.114922 -0.332368 0
-0.0972867 -0.352971 0
-0.0587317 -0.294517 0
-0.0173981 -0.11433 0
0.000209833 0.0327687 0
0.000429595 0.0782344 0
0.000178827 0.106403 0
-0.000393096 0.122558 0
-0.000803254 0.131835 0
-0.000610879 0.137656 0
0.000438845 0.141719 0
0.00242109 0.144547 0
0.00527923 0.146031 0
0.00886657 0.145785 0
0.0129753 0.143366 0
0.0173545 0.138377 0
0.0217192 0.130526 0
0.0257595 0.11967 0
0.0291503 0.105848 0
0.0315651 0.0893037 0
0.0326947 0.0704984 0
0.0322717 0.0500896 0
0.0300988 0.0288733 0
0.026076 0.00766118 0
0.0201911 -0.0129312 0
0.0124299 -0.0327487 0
0.00254825 -0.052472 0
-0.0101945 -0.0739575 0
-0.0269228 -0.100959 0
-0.0483531 -0.138792 0
-0.0731339 -0.192378 0
-0.0962419 -0.261113 0
-0.108956 -0.332915 0
-0.101097 -0.377917 0
-0.0671866 -0.342036 0
-0.0218015 -0.153529 0
0.000108235 0.0324506 0
0.000240464 0.0782005 0
0.000275685 0.106652 0
0.000494588 0.122662 0
0.00132213 0.131314 0
0.00310835 0.136199 0
0.00602906 0.139206 0
0.0100945 0.141012 0
0.0151905 0.141612 0
0.0211121 0.140696 0
0.0275893 0.13787 0
0.0343057 0.132777 0
0.040909 0.125157 0
0.0470222 0.114885 0
0.0522559 0.102008 0
0.0562256 0.0867589 0
0.0585761 0.0695631 0
0.0590111 0.051013 0
0.0573266 0.0318073 0
0.0534362 0.0126403 0
0.0473671 -0.00595642 0
0.039211 -0.0238061 0
0.0289804 -0.0413024 0
0.0163966 -0.0598006 0
0.000496424 -0.082487 0
-0.0203662 -0.114971 0
-0.0467939 -0.164991 0
-0.0755635 -0.236623 0
-0.0980996 -0.322155 0
-0.101661 -0.392975 0
-0.075101 -0.387448 0
-0.0266361 -0.201967 0
-0.000213695 0.032556 0
-0.000673563 0.0784226 0
-0.000820802 0.106542 0
-6.43703e-05 0.121796 0
0.00193267 0.129355 0
0.005345 0.13296 0
0.0101992 0.134671 0
0.0163932 0.135288 0
0.0237318 0.134901 0
0.0319469 0.13327 0
0.0407117 0.130054 0
0.049655 0.124934 0
0.0583718 0.11768 0
0.0664353 0.108185 0
0.0734122 0.0964971 0
0.0788831 0.082829 0
0.0824689 0.0675567 0
0.0838627 0.0511907 0
0.08286 0.0343169 0
0.0793778 0.0175034 0
0.0734468 0.00118046 0
0.0651739 -0.0145139 0
0.0546638 -0.0298538 0
0.0418739 -0.0458755 0
0.0263602 -0.0649982 0
0.00687973 -0.0921167 0
-0.0187274 -0.13581 0
-0.0503341 -0.205427 0
-0.0812136 -0.299936 0
-0.0972545 -0.395593 0
-0.0811919 -0.427453 0
-0.0315082 -0.260111 0
-0.000884143 0.0336539 0
-0.00267022 0.0795708 0
-0.00359051 0.106462 0
-0.00254408 0.120074 0
0.000623384 0.125912 0
0.00577147 0.127841 0
0.0126818 0.128024 0
0.0210902 0.127332 0
0.0306993 0.12591 0
0.0411759 0.12357 0
0.0521469 0.120018 0
0.0632027 0.114971 0
0.0739052 0.108224 0
0.0837996 0.0996832 0
0.0924319 0.0893899 0
0.0993707 0.0775267 0
0.104234 0.0644096 0
0.10672 0.0504581 0
0.10663 0.0361418 0
0.103886 0.0219051 0
0.0985199 0.00807571 0
0.0906352 -0.00525155 0
0.0803512 -0.018322 0
0.0677115 -0.0319779 0
0.0525082 -0.0481788 0
0.0340025 -0.0709498 0
0.0105092 -0.107876 0
-0.0204806 -0.170765 0
-0.0567471 -0.267452 0
-0.085226 -0.383557 0
-0.0831713 -0.457607 0
-0.0355965 -0.327216 0
-0.00214763 0.0366857 0
-0.00633371 0.0825111 0
-0.00866652 0.106774 0
-0.00744526 0.117494 0
-0.00293752 0.120818 0
0.00420202 0.120649 0
0.013394 0.119115 0
0.0241667 0.11706 0
0.0361132 0.114626 0
0.0488451 0.111645 0
0.0619605 0.107856 0
0.0750334 0.103004 0
0.0876164 0.0969053 0
0.0992517 0.089472 0
0.109489 0.0807316 0
0.117907 0.0708278 0
0.124143 0.0600095 0
0.127912 0.0486025 0
0.129036 0.0369634 0
0.127445 0.0254192 0
0.123176 0.014197 0
0.116346 0.00334164 0
0.107097 -0.00738244 0
0.0954846 -0.0186651 0
0.081352 -0.0321557 0
0.0641555 -0.0512707 0
0.0426248 -0.0825315 0
0.014417 -0.136912 0
-0.022767 -0.227854 0
-0.0617634 -0.355679 0
-0.0771843 -0.472118 0
-0.0373257 -0.400138 0
-0.00444389 0.0432772 0
-0.0125452 0.0882071 0
-0.0167177 0.107584 0
-0.0150023 0.113748 0
-0.00860617 0.11366 0
0.00103818 0.111023 0
0.0129008 0.107686 0
0.0262951 0.104322 0
0.0407243 0.100988 0
0.0557721 0.0975032 0
0.0710368 0.0936179 0
0.0861049 0.0891011 0
0.100548 0.0837823 0
0.113933 0.0775749 0
0.125839 0.0704855 0
0.135882 0.0626129 0
0.143735 0.0541357 0
0.149154 0.045287 0
0.151992 0.0363173 0
0.152202 0.0274472 0
0.149828 0.0188119 0
0.144987 0.0103975 0
0.137831 0.00196646 0
0.128467 -0.00703807 0
0.116737 -0.01792 0
0.102071 -0.0336437 0
0.0832847 -0.0598413 0
0.0580916 -0.106201 0
0.0232027 -0.186492 0
-0.0218239 -0.313019 0
-0.0571033 -0.464078 0
-0.033838 -0.471302 0
-0.00840624 0.0561273 0
-0.0221302 0.0971822 0
-0.0274853 0.108136 0
-0.0238117 0.107806 0
-0.0141431 0.103536 0
-0.000924381 0.0982828 0
0.0143769 0.093262 0
0.03093 0.0887986 0
0.0482211 0.0847912 0
0.0658629 0.0810104 0
0.0834999 0.077209 0
0.100771 0.0731713 0
0.117301 0.0687384 0
0.132715 0.0638196 0
0.146653 0.0583971 0
0.15879 0.052522 0
0.16886 0.0463028 0
0.176675 0.0398856 0
0.18213 0.0334259 0
0.185205 0.0270536 0
0.185953 0.0208316 0
0.184466 0.0147054 0