# vtk DataFile Version 2.0
Lid-driven cavity
ASCII
DATASET STRUCTURED_POINTS
DIMENSIONS 32 32 1
ORIGIN 0.015625 0.015625 0
SPACING 0.03125 0.03125 1
POINT_DATA 1024
SCALARS pressure double 1
LOOKUP_TABLE default
1.59247
1.58412
1.58182
1.59029
1.61087
1.64353
1.68789
1.74356
1.81024
1.88764
1.97544
2.0732
2.1803
2.29584
2.41862
2.54708
2.67928
2.81302
2.94579
3.07474
3.19681
3.30903
3.40875
3.49386
3.56295
3.61547
3.65174
3.67291
3.68093
3.67862
3.67004
3.66125
1.60082
1.59231
1.59247
1.60309
1.62489
1.65799
1.70222
1.7574
1.8233
1.8997
1.98629
2.08262
2.18808
2.30178
2.42252
2.54877
2.6786
2.8099
2.94024
3.06681
3.18662
3.29676
3.39464
3.47824
3.54626
3.59826
3.63468
3.6568
3.66667
3.66697
3.66102
3.65245
1.60265
1.59128
1.59154
1.60308
1.6257
1.65923
1.70351
1.75841
1.82381
1.89955
1.98538
2.08092
2.18561
2.2986
2.41877
2.54459
2.67418
2.80544
2.93594
3.06277
3.18284
3.29313
3.39097
3.47428
3.54177
3.59311
3.62889
3.65057
3.66028
3.6606
3.6542
3.64339
1.59141
1.57719
1.57675
1.58853
1.61158
1.64543
1.68981
1.74463
1.80982
1.88531
1.97094
2.06641
2.17126
2.28475
2.40583
2.53303
2.6645
2.79807
2.93118
3.06071
3.18335
3.29583
3.39524
3.47935
3.54682
3.59741
3.63193
3.65211
3.66029
3.65909
3.651
3.63793
1.56339
1.54693
1.54569
1.55741
1.58067
1.61475
1.65932
1.71426
1.77959
1.85531
1.94135
2.03757
2.1436
2.25885
2.38236
2.51278
2.64823
2.78643
2.92454
3.05916
3.18662
3.30327
3.40581
3.49174
3.55964
3.60938
3.64206
3.65985
3.66547
3.66183
3.65161
3.63686
1.51628
1.49813
1.49621
1.5078
1.5312
1.56553
1.61039
1.66571
1.73155
1.808
1.89514
1.99293
2.10117
2.21943
2.34689
2.48231
2.62383
2.76894
2.91445
3.05657
3.19117
3.31404
3.42137
3.51022
3.579
3.62772
3.65795
3.67245
3.6746
3.66786
3.65529
3.63934
1.44844
1.42896
1.42651
1.43801
1.46157
1.4962
1.54151
1.59746
1.66416
1.74183
1.83066
1.93079
2.04218
2.16458
2.29737
2.43943
2.58898
2.7432
2.89851
3.05067
3.19494
3.32638
3.44043
3.53354
3.60381
3.6514
3.67847
3.6887
3.68643
3.67587
3.66065
3.64368
1.35853
1.33793
1.33505
1.34651
1.37027
1.40528
1.45116
1.50791
1.57575
1.65498
1.74596
1.84898
1.96421
2.0916
2.23075
2.38077
2.54001
2.70538
2.87286
3.03774
3.19453
3.33739
3.46071
3.56003
3.63287
3.67944
3.70265
3.70746
3.69958
3.68431
3.66589
3.64773
1.24538
1.22375
1.22047
1.23191
1.25587
1.29126
1.33773
1.39534
1.46439
1.5453
1.63857
1.74468
1.864
1.99674
2.14274
2.3014
2.47141
2.64953
2.83131
3.01158
3.18412
3.34197
3.47816
3.58681
3.6644
3.71082
3.72977
3.72786
3.71283
3.69149
3.6689
3.64893
1.10788
1.08523
1.08154
1.09289
1.11696
1.15263
1.19955
1.25784
1.32789
1.41023
1.5055
1.61434
1.73736
1.87501
2.02746
2.19444
2.37512
2.56664
2.76413
2.96211
3.15378
3.33103
3.48519
3.60832
3.69498
3.74396
3.75931
3.74959
3.72534
3.69585
3.66743
3.64435
0.944953
0.921253
0.917061
0.92819
0.952163
0.987818
1.03482
1.09334
1.1638
1.24685
1.34321
1.45369
1.57909
1.72011
1.87725
2.05065
2.23995
2.44366
2.65657
2.8733
3.08696
3.2886
3.46765
3.6134
3.71715
3.77506
3.79021
3.77279
3.73702
3.69622
3.65911
3.63067
0.75559
0.730775
0.725934
0.736599
0.760133
0.795312
0.841785
0.899716
0.969568
1.052
1.1478
1.25786
1.3831
1.52442
1.68259
1.85821
2.05154
2.26247
2.48734
2.72101
2.95759
3.18813
3.40054
3.58071
3.71507
3.79453
3.81852
3.79704
3.74828
3.69179
3.64133
3.60392
0.538832
0.512812
0.50713
0.517012
0.539642
0.573693
0.618757
0.674945
0.742669
0.822525
0.915246
1.02166
1.14266
1.27918
1.43216
1.6026
1.7915
1.99983
2.22789
2.47149
2.72755
2.98896
3.24332
3.47317
3.65841
3.78124
3.83274
3.81843
3.75879
3.68181
3.611
3.55899
0.29381
0.266476
0.259729
0.268462
0.289637
0.321776
0.364345
0.417318
0.480939
0.555602
0.641788
0.740039
0.850945
0.975179
1.11359
1.26743
1.43852
1.62951
1.84358
2.08207
2.34656
2.6349
2.93696
3.23323
3.49616
3.69542
3.80709
3.82443
3.76461
3.66446
3.56395
3.48898
0.019749
-0.00902501
-0.0170575
-0.00983086
0.00933487
0.0387393
0.0776264
0.125713
0.182917
0.249219
0.324582
0.408913
0.502078
0.604012
0.715009
0.836221
0.970307
1.12197
1.29791
1.50568
1.75624
2.05736
2.40539
2.782
3.15303
3.47266
3.69423
3.78715
3.75374
3.63497
3.49419
3.38425
-0.284041
-0.3144
-0.32389
-0.318429
-0.301702
-0.275737
-0.241634
-0.200092
-0.151721
-0.0972235
-0.0375079
0.0262424
0.0925954
0.160085
0.227752
0.29609
0.368302
0.451485
0.557031
0.699414
0.899692
1.18495
1.56413
2.02559
2.53228
3.02254
3.42027
3.65669
3.70054
3.58299
3.39337
3.23148
-0.618231
-0.650341
-0.661347
-0.657683
-0.643522
-0.621354
-0.592783
-0.55911
-0.521711
-0.482276
-0.442993
-0.406668
-0.376709
-0.3568
-0.350054
-0.357497
-0.375973
-0.396
-0.40052
-0.36566
-0.263408
-0.0399369
0.337242
0.870864
1.52821
2.23605
2.88612
3.35769
3.56075
3.48964
3.25085
3.01389
-0.983596
-1.01765
-1.03003
-1.02779
-1.01578
-0.997133
-0.974134
-0.948901
-0.923819
-0.901878
-0.886947
-0.883985
-0.899065
-0.93896
-1.00997
-1.11575
-1.25422
-1.41414
-1.57261
-1.69509
-1.74
-1.64001
-1.31866
-0.74949
0.0497751
1.00452
1.9792
2.79309
3.27008
3.32597
3.05512
2.7139
-1.38124
-1.41748
-1.43076
-1.42897
-1.41785
-1.40143
-1.38292
-1.36545
-1.35264
-1.34905
-1.36055
-1.39466
-1.4607
-1.56928
-1.73088
-1.95301
-2.23605
-2.5683
-2.92176
-3.25063
-3.49524
-3.58147
-3.38839
-2.84688
-1.9475
-0.750222
0.597436
1.85885
2.75021
3.05579
2.79955
2.32246
-1.81297
-1.85168
-1.8649
-1.86164
-1.84894
-1.83205
-1.81535
-1.80323
-1.80069
-1.81402
-1.85123
-1.92266
-2.04113
-2.22154
-2.47923
-2.82667
-3.26825
-3.79379
-4.37218
-4.94771
-5.44231
-5.76492
-5.77904
-5.35025
-4.42863
-3.0397
-1.31657
0.47046
1.92542
2.64678
2.49691
1.86043
-2.28179
-2.32332
-2.3348
-2.32687
-2.30843
-2.28647
-2.26689
-2.25548
-2.25878
-2.28477
-2.34361
-2.44829
-2.61503
-2.86298
-3.21252
-3.68165
-4.28007
-5.00132
-5.81435
-6.6571
-7.4359
-8.03536
-8.314
-8.09365
-7.25721
-5.77749
-3.73906
-1.40259
0.749043
2.09083
2.20424
1.41346
-2.79279
-2.83754
-2.8445
-2.8268
-2.7962
-2.76215
-2.73249
-2.71466
-2.7167
-2.74814
-2.82097
-2.95041
-3.15552
-3.45905
-3.88581
-4.45914
-5.19459
-6.09129
-7.12181
-8.22296
-9.29156
-10.1906
-10.7637
-10.8298
-10.1974
-8.76682
-6.53931
-3.70425
-0.76634
1.42919
2.05344
1.17599
-3.35438
-3.40275
-3.40064
-3.36531
-3.31303
-3.25681
-3.20707
-3.17303
-3.16411
-3.1911
-3.26724
-3.40928
-3.63814
-3.97895
-4.45968
-5.10777
-5.94408
-6.97414
-8.17712
-9.49465
-10.8228
-12.013
-12.889
-13.2709
-12.9471
-11.7188
-9.47833
-6.2743
-2.52553
0.773633
2.27844
1.49734
-3.98046
-4.03256
-4.01382
-3.94878
-3.86098
-3.76875
-3.68577
-3.62316
-3.59142
-3.60204
-3.66884
-3.80914
-4.0445
-4.40086
-4.90745
-5.59391
-6.48487
-7.59147
-8.90068
-10.3635
-11.8849
-13.3189
-14.4768
-15.1682
-15.1995
-14.304
-12.2401
-8.85609
-4.34364
0.315797
3.23193
2.92723
-4.69411
-4.74901
-4.70058
-4.58688
-4.4436
-4.29677
-4.16408
-4.05833
-3.99048
-3.97193
-4.01619
-4.14018
-4.3649
-4.71586
-5.22218
-5.91389
-6.81688
-7.94525
-9.29161
-10.8163
-12.4376
-14.026
-15.4053
-16.3722
-16.7277
-16.2267
-14.4895
-11.1283
-5.95535
0.324758
5.39232
6.26796
-5.53491
-5.58824
-5.48613
-5.29319
-5.06539
-4.83951
-4.63736
-4.47241
-4.35485
-4.29478
-4.3044
-4.39911
-4.59853
-4.92687
-5.412
-6.08282
-6.96459
-8.07201
-9.40056
-10.9171
-12.552
-14.1941
-15.6913
-16.8554
-17.472
-17.297
-15.9315
-12.7413
-7.02119
1.15179
9.3753
12.6539
-6.5743
-6.61076
-6.40783
-6.08434
-5.72949
-5.39304
-5.09894
-4.85858
-4.67893
-4.56706
-4.53248
-4.58813
-4.75164
-5.04538
-5.49528
-6.12826
-6.96781
-8.02767
-9.30406
-10.7676
-12.3569
-13.9746
-15.4888
-16.7364
-17.5134
-17.5407
-16.4074
-13.3271
-7.08719
3.29451
15.9894
23.6955
-7.95196
-7.92019
-7.5167
-6.97362
-6.42959
-5.94369
-5.53435
-5.20456
-4.95404
-4.78428
-4.70035
-4.7121
-4.83483
-5.08883
-5.49789
-6.08666
-6.87638
-7.87898
-9.09007
-10.4818
-11.9971
-13.5465
-15.0091
-16.2348
-17.0396
-17.1254
-15.9789
-12.6431
-5.45025
7.61593
26.4204
41.7315
-9.97162
-9.69184
-8.86312
-7.94416
-7.12454
-6.4471
-5.9041
-5.47818
-5.15581
-4.92928
-4.79784
-4.76802
-4.85277
-5.07031
-5.44241
-5.99151
-6.73648
-7.68709
-8.83746
-10.1595
-11.5972
-13.0638
-14.4397
-15.5727
-16.272
-16.2369
-14.781
-10.6453
-1.49711
15.8011
42.7056
70.1428
-13.3744
-12.1682
-10.3983
-8.84936
-7.66006
-6.76812
-6.09583
-5.58641
-5.20568
-4.93586
-4.77087
-4.71375
-4.77499
-4.97085
-5.32116
-5.84624
-6.56262
-7.47767
-8.58337
-9.84998
-11.2206
-12.6063
-13.8822
-14.8799
-15.3707
-15.019
-12.8752
-7.15042
5.3718
29.4662
68.9969
113.109
-20.0388
-15.2225
-11.4982
-9.08129
-7.52116
-6.48121
-5.75831
-5.23985
-4.86685
-4.61087
-4.46144
-4.41977
-4.49542
-4.70385
-5.06378
-5.59396
-6.3089
-7.21364
-8.29768
-9.5289
-10.8476
-12.1604
-13.3315
-14.1661
-14.3734
-13.4882
-10.2052
-2.04922
15.4173
49.6993
111.797
199.962
-37.8428
-15.5178
-8.66618
-6.26243
-5.19802
-4.60971
-4.23192
-3.97165
-3.79461
-3.69075
-3.66224
-3.71878
-3.87553
-4.15141
-4.56703
-5.14181
-5.89003
-6.81584
-7.90749
-9.13133
-10.4254
-11.6917
-12.7823
-13.4722
-13.3929
-11.868
-7.29894
3.27068
25.3006
69.4933
161.264
370.679
VECTORS velocity double
2.97432e-07 -2.97514e-07 0
-0.000122276 0.000122871 0
-0.000468388 0.000223242 0
-0.000972556 0.000280925 0
-0.00156094 0.000307458 0
-0.00218486 0.000316466 0
-0.00281814 0.000316811 0
-0.00344755 0.000312602 0
-0.00406487 0.000304718 0
-0.00466178 0.000292186 0
-0.00522711 0.000273149 0
-0.00574575 0.000245487 0
-0.0061985 0.000207265 0
-0.0065629 0.000157138 0
-0.00681477 9.47221e-05 0
-0.00693032 2.08326e-05 0
-0.00688822 -6.29323e-05 0
-0.0066716 -0.000153686 0
-0.00627239 -0.000245528 0
-0.00569581 -0.000331046 0
-0.00496262 -0.000402147 0
-0.00410945 -0.000451024 0
-0.00318711 -0.000471321 0
-0.00225646 -0.000459324 0
-0.00138231 -0.000414825 0
-0.000626106 -0.000341381 0
-3.8879e-05 -0.000245846 0
0.000344574 -0.000137607 0
0.000510563 -2.8382e-05 0
0.000472994 6.59508e-05 0
0.000288244 0.000118799 0
8.47222e-05 8.4722e-05 0
-0.000134296 0.000133701 0
-0.000663666 0.000640815 0
-0.00164981 0.00103756 0
-0.00295385 0.00127481 0
-0.00444356 0.00139167 0
-0.00602271 0.00143533 0
-0.00762966 0.00143817 0
-0.00922524 0.00141624 0
-0.0107805 0.00137363 0
-0.0122676 0.00130726 0
-0.0136546 0.00121045 0
-0.0149033 0.00107546 0
-0.0159686 0.00089537 0
-0.0168009 0.00066572 0
-0.0173488 0.000385927 0
-0.0175638 6.02394e-05 0
-0.0174054 -0.000302925 0
-0.0168469 -0.000688817 0
-0.0158827 -0.00107381 0
-0.0145328 -0.00142916 0
-0.0128463 -0.00172381 0
-0.0109008 -0.00192798 0
-0.00880023 -0.00201729 0
-0.00666713 -0.0019771 0
-0.00463257 -0.00180576 0
-0.00282323 -0.001516 0
-0.00134787 -0.00113381 0
-0.000284753 -0.000696208 0
0.000330303 -0.000250826 0
0.00051866 0.000137606 0
0.000379999 0.000370555 0
0.000123521 0.000292965 0
-0.000273306 0.000541303 0
-0.00120294 0.00169222 0
-0.00276995 0.00253931 0
-0.00474507 0.00305221 0
-0.00695518 0.00331409 0
-0.00927879 0.00341567 0
-0.0116341 0.00342006 0
-0.0139638 0.00335962 0
-0.0162217 0.00324341 0
-0.0183631 0.003066 0
-0.0203389 0.00281456 0
-0.0220931 0.0024742 0
-0.0235632 0.00203206 0
-0.0246826 0.0014807 0
-0.0253848 0.000821052 0
-0.0256092 6.46309e-05 0
-0.0253088 -0.000766196 0
-0.0244581 -0.0016348 0
-0.0230592 -0.0024909 0
-0.0211461 -0.00327498 0
-0.0187874 -0.00392333 0
-0.0160865 -0.00437478 0
-0.0131788 -0.00457884 0
-0.0102231 -0.00450427 0
-0.00739011 -0.00414617 0
-0.00484532 -0.00352972 0
-0.00273153 -0.00270924 0
-0.0011512 -0.00176423 0
-0.000150881 -0.000798182 0
0.000294546 5.11769e-05 0
0.000302315 0.000587876 0
0.000108976 0.000525461 0
-0.000390332 0.00120494 0
-0.00166414 0.00323202 0
-0.00373061 0.00463299 0
-0.00626755 0.00547061 0
-0.00906212 0.00590036 0
-0.0119745 0.00606539 0
-0.0149108 0.0060619 0
-0.0178024 0.00593903 0
-0.0205911 0.00571069 0
-0.0232198 0.00536881 0
-0.0256264 0.00489418 0
-0.0277425 0.00426482 0
-0.0294934 0.00346247 0
-0.0308017 0.00247803 0
-0.0315922 0.00131631 0
-0.0317981 -2.47287e-07 0
-0.0313706 -0.00142922 0
-0.0302863 -0.00290676 0
-0.0285525 -0.00435167 0
-0.0262105 -0.00566928 0
-0.02334 -0.00675825 0
-0.0200604 -0.00752028 0
-0.0165289 -0.00787262 0
-0.012933 -0.00776205 0
-0.00947675 -0.00717763 0
-0.00636093 -0.00615888 0
-0.00375849 -0.00479631 0
-0.00179087 -0.00322511 0
-0.000508624 -0.00161987 0
0.000122929 -0.000204119 0
0.000238952 0.000719378 0
9.59062e-05 0.000730343 0
-0.000484486 0.00207976 0
-0.00204053 0.00518705 0
-0.00452123 0.00722512 0
-0.00752209 0.00841628 0
-0.0107928 0.00902001 0
-0.0141779 0.00924322 0
-0.0175753 0.00921777 0
-0.0209098 0.00900923 0
-0.0241161 0.00863556 0
-0.027129 0.00808547 0
-0.0298781 0.00733322 0
-0.0322863 0.00635002 0
-0.0342711 0.00511297 0
-0.0357477 0.00361257 0
-0.0366348 0.00185926 0
-0.0368611 -0.000110968 0
-0.0363751 -0.00223202 0
-0.0351513 -0.004412 0
-0.0331939 -0.00653771 0
-0.0305418 -0.00847739 0
-0.0272742 -0.0100882 0
-0.0235155 -0.0112285 0
-0.0194371 -0.0117744 0
-0.0152523 -0.011641 0
-0.0112035 -0.0108037 0
-0.0075372 -0.00931496 0
-0.00447032 -0.00730955 0
-0.00215453 -0.00499528 0
-0.000648268 -0.0026382 0
9.81347e-05 -0.000563741 0
0.00025034 0.000810771 0
0.000103043 0.000929292 0
-0.00055969 0.00312393 0
-0.00234352 0.00748274 0
-0.00516189 0.0102285 0
-0.0085429 0.0117948 0
-0.0122042 0.0125735 0
-0.015977 0.0128476 0
-0.019754 0.0127879 0
-0.0234569 0.0124766 0
-0.0270174 0.011935 0
-0.0303663 0.0111478 0
-0.033429 0.0100826 0
-0.0361235 0.00870345 0
-0.0383624 0.00698326 0
-0.040056 0.00491257 0
-0.0411178 0.00250813 0
-0.0414715 -0.000179883 0
-0.0410592 -0.00306138 0
-0.0398464 -0.0060193 0
-0.0378233 -0.00891086 0
-0.0350118 -0.0115679 0
-0.0314737 -0.0138034 0
-0.0273215 -0.0154241 0
-0.0227273 -0.0162515 0
-0.0179252 -0.0161508 0
-0.0132018 -0.015066 0
-0.0088691 -0.0130517 0
-0.00521758 -0.0102912 0
-0.0024603 -0.00708671 0
-0.000684347 -0.00382899 0
0.000172445 -0.000976147 0
0.000322265 0.000921151 0
0.00012807 0.0011604 0
-0.000619894 0.00430352 0
-0.002587 0.0100541 0
-0.00567943 0.013568 0
-0.00937249 0.0155294 0
-0.0133585 0.0164862 0
-0.0174589 0.0168081 0
-0.0215641 0.0167095 0
-0.0255958 0.0162897 0
-0.0294865 0.0155729 0
-0.0331672 0.0145395 0
-0.0365627 0.0131491 0
-0.0395903 0.011359 0
-0.0421605 0.00913689 0
-0.0441812 0.0064733 0
-0.0455625 0.00339044 0
-0.0462219 -4.91034e-05 0
-0.0460913 -0.00373501 0
-0.0451183 -0.00753158 0
-0.0432654 -0.0112744 0
-0.040517 -0.0147643 0
-0.0368929 -0.0177693 0
-0.0324677 -0.0200355 0
-0.0273917 -0.0213103 0
-0.0219058 -0.0213801 0
-0.0163419 -0.0201239 0
-0.0110981 -0.0175704 0
-0.00658047 -0.0139418 0
-0.00311716 -0.00965672 0
-0.000871026 -0.00528108 0
0.000211428 -0.00146331 0
0.000399894 0.00107002 0
0.000158573 0.00144705 0
-0.000668148 0.00559156 0
-0.00278275 0.0128478 0
-0.00609797 0.017182 0
-0.0100492 0.0195596 0
-0.0143103 0.0207031 0
-0.0186973 0.0210786 0
-0.0231011 0.0209479 0
-0.0274473 0.0204292 0
-0.0316728 0.0195495 0
-0.0357132 0.018284 0
-0.0394976 0.0165845 0
-0.0429465 0.0144 0
-0.0459736 0.0116931 0
-0.0484881 0.00845245 0
-0.0503993 0.00470367 0
-0.051619 0.000516857 0
-0.0520636 -0.00398696 0
-0.0516518 -0.00866449 0
-0.0503003 -0.0133459 0
-0.0479293 -0.0178123 0
-0.0444849 -0.0217898 0
-0.0399708 -0.0249543 0
-0.0344845 -0.0269539 0
-0.0282498 -0.0274571 0
-0.0216337 -0.0262268 0
-0.0151321 -0.0232128 0
-0.00930894 -0.0186402 0
-0.00468011 -0.0130504 0
-0.00156586 -0.00724776 0
2.30751e-05 -0.00216801 0
0.000405837 0.0012035 0
0.000177553 0.00178317 0
-0.000706471 0.00696618 0
-0.00293905 0.0158203 0
-0.00643521 0.0210208 0
-0.0106014 0.0238382 0
-0.0150998 0.0251841 0
-0.0197447 0.0256296 0
-0.0244317 0.0254878 0
-0.0290938 0.0248976 0
-0.0336767 0.0238895 0
-0.0381261 0.0224338 0
-0.0423808 0.0204739 0
-0.0463718 0.0179506 0
-0.0500219 0.0148198 0
-0.0532482 0.0110666 0
-0.0559622 0.00671469 0
-0.058069 0.00183237 0
-0.0594618 -0.00346498 0
-0.0600151 -0.00904504 0
-0.0595758 -0.0147562 0
-0.0579711 -0.0203776 0
-0.0550409 -0.0255991 0
-0.050684 -0.0300159 0
-0.0449126 -0.0331499 0
-0.037903 -0.0345054 0
-0.0300324 -0.0336652 0
-0.0218863 -0.030422 0
-0.0142106 -0.0249298 0
-0.00778139 -0.0178188 0
-0.00319011 -0.0101849 0
-0.000618729 -0.0033912 0
0.000252567 0.00117264 0
0.000167082 0.00212781 0
-0.000735883 0.00840853 0
-0.00306048 0.0189351 0
-0.00670138 0.025043 0
-0.0110457 0.0283265 0
-0.0157497 0.0298981 0
-0.0206303 0.0304411 0
-0.0255911 0.0303241 0
-0.0305768 0.0297091 0
-0.0355475 0.0286317 0
-0.0404651 0.0270585 0
-0.0452864 0.0249253 0
-0.0499609 0.0221647 0
-0.0544301 0.0187249 0
-0.0586249 0.0145825 0
-0.0624617 0.00974953 0
-0.0658322 0.00427486 0
-0.0685899 -0.00175687 0
-0.0705435 -0.00824638 0
-0.0714492 -0.0150885 0
-0.0710173 -0.0220818 0
-0.0689567 -0.0288858 0
-0.0650379 -0.0350051 0
-0.0591611 -0.039809 0
-0.0514229 -0.0425942 0
-0.0421732 -0.0426967 0
-0.032051 -0.0396588 0
-0.0219715 -0.0334483 0
-0.0130145 -0.0246865 0
-0.0061655 -0.0147575 0
-0.00194466 -0.00561079 0
-0.000144882 0.000721139 0
0.000112509 0.0024074 0
-0.000756513 0.00990093 0
-0.00314814 0.022159 0
-0.00689955 0.0292115 0
-0.0113873 0.03299 0
-0.0162664 0.0348176 0
-0.02136 0.0354958 0
-0.0265834 0.0354537 0
-0.0318978 0.0348796 0
-0.0372834 0.0338176 0
-0.0427261 0.0322328 0
-0.0482098 0.030056 0
-0.0537131 0.0272119 0
-0.0592043 0.023638 0
-0.0646332 0.0192932 0
-0.0699173 0.0141596 0
-0.0749214 0.00823937 0
-0.0794385 0.00155343 0
-0.0831835 -0.00585806 0
-0.0858051 -0.0139496 0
-0.0868937 -0.0225639 0
-0.0860223 -0.0313357 0
-0.0828252 -0.0396711 0
-0.0770757 -0.0467691 0
-0.0687607 -0.0516873 0
-0.058154 -0.05346 0
-0.0458855 -0.0512861 0
-0.0329806 -0.0448054 0
-0.0208101 -0.0344569 0
-0.010846 -0.0218002 0
-0.0041567 -0.00947818 0
-0.000854965 -0.000512988 0
4.6316e-06 0.00252454 0
-0.000767804 0.0114252 0
-0.0032004 0.0254589 0
-0.00702698 0.0334896 0
-0.0116213 0.037794 0
-0.0166414 0.0399128 0
-0.0219192 0.040772 0
-0.0273851 0.0408667 0
-0.0330206 0.0404166 0
-0.0388327 0.0394784 0
-0.044839 0.0380209 0
-0.0510599 0.0359725 0
-0.0575118 0.0332505 0
-0.0641961 0.0297748 0
-0.0710807 0.02547 0
-0.0780739 0.0202601 0
-0.0849956 0.0140647 0
-0.0915565 0.00680613 0
-0.0973574 -0.00156476 0
-0.101933 -0.011046 0
-0.104772 -0.0215394 0
-0.105336 -0.032668 0
-0.103133 -0.0437393 0
-0.097804 -0.0537789 0
-0.0892008 -0.0615957 0
-0.0774662 -0.0658929 0
-0.0631364 -0.0654516 0
-0.0472447 -0.0594366 0
-0.0313702 -0.0478708 0
-0.0174897 -0.0322309 0
-0.0074271 -0.0157994 0
-0.00193326 -0.00298736 0
-0.000161558 0.00236761 0
-0.000768804 0.0129619 0
-0.00321399 0.0288 0
-0.00707714 0.0378382 0
-0.0117367 0.0426994 0
-0.016856 0.0451468 0
-0.0222779 0.0462376 0
-0.0279494 0.0465385 0
-0.0338763 0.0463073 0
-0.0400966 0.0456201 0
-0.0466663 0.044455 0
-0.0536488 0.0427418 0
-0.0611029 0.0403874 0
-0.0690627 0.037282 0
-0.077507 0.0332916 0
-0.0863224 0.028247 0
-0.0952696 0.0219467 0
-0.103969 0.0141847 0
-0.111917 0.00480491 0
-0.118527 -0.00623 0
-0.123211 -0.0188313 0
-0.125374 -0.0326497 0
-0.124425 -0.0469103 0
-0.11988 -0.0604815 0
-0.111434 -0.0719423 0
-0.0990451 -0.0796695 0
-0.0830615 -0.0819884 0
-0.0643888 -0.0774641 0
-0.0446631 -0.0654434 0
-0.026279 -0.0469229 0
-0.0119464 -0.0255027 0
-0.00345789 -0.00726642 0
-0.00039448 0.00181158 0
-0.000758562 0.0144892 0
-0.0031854 0.0321447 0
-0.00704249 0.0422138 0
-0.0117194 0.0476602 0
-0.0168864 0.0504724 0
-0.0223966 0.0518441 0
-0.0282144 0.0524214 0
-0.0343707 0.0525076 0
-0.0409367 0.0522062 0
-0.0480087 0.0515106 0
-0.0556938 0.0503539 0
-0.0640911 0.0486266 0
-0.0732604 0.0461719 0
-0.0831819 0.0427675 0
-0.0937121 0.0381165 0
-0.104553 0.0318657 0
-0.11525 0.0236621 0
-0.125216 0.0132406 0
-0.133787 0.000515601 0
-0.14031 -0.0143692 0
-0.144162 -0.0310976 0
-0.144711 -0.0488627 0
-0.141369 -0.0664153 0
-0.133672 -0.0821523 0
-0.121349 -0.0941704 0
-0.104468 -0.100352 0
-0.0836541 -0.0985872 0
-0.0603958 -0.0873043 0
-0.0373038 -0.066538 0
-0.0179513 -0.0395727 0
-0.00557164 -0.0140646 0
-0.000721206 0.000695889 0
-0.00073658 0.0159844 0
-0.00311255 0.0354524 0
-0.00691772 0.0465683 0
-0.011558 0.0526227 0
-0.01671 0.0558289 0
-0.0222355 0.0575231 0
-0.0281136 0.0584383 0
-0.0343981 0.0589315 0
-0.0411908 0.0591411 0
-0.0486243 0.0590811 0
-0.0568432 0.0586873 0
-0.0659773 0.0578245 0
-0.0761025 0.0562686 0
-0.0871936 0.0536834 0
-0.0990815 0.0496188 0
-0.11143 0.0435536 0
-0.123744 0.0349846 0
-0.135401 0.0235409 0
-0.145705 0.00909088 0
-0.153941 -0.00818555 0
-0.159484 -0.0278871 0
-0.161731 -0.049277 0
-0.160029 -0.0710444 0
-0.153768 -0.0914815 0
-0.142435 -0.108497 0
-0.125736 -0.119606 0
-0.103865 -0.122019 0
-0.0779266 -0.113069 0
-0.0504523 -0.0913394 0
-0.0256618 -0.0589144 0
-0.00847807 -0.0242862 0
-0.00119283 -0.00121815 0
-0.000703322 0.0174243 0
-0.00299668 0.0386818 0
-0.00670342 0.0508508 0
-0.0112489 0.057526 0
-0.0163142 0.061143 0
-0.0217648 0.0631852 0
-0.02759 0.0644796 0
-0.0338601 0.0654448 0
-0.0406997 0.0662602 0
-0.0482675 0.0669633 0
-0.0567329 0.0674895 0
-0.0662436 0.0676672 0
-0.0768821 0.0671896 0
-0.0886189 0.0655904 0
-0.101276 0.0622569 0
-0.114513 0.0565007 0
-0.127836 0.0476751 0
-0.140639 0.0353101 0
-0.152241 0.0192281 0
-0.161945 -0.000383521 0
-0.169117 -0.0229737 0
-0.173178 -0.0478824 0
-0.173497 -0.0738219 0
-0.169377 -0.0990853 0
-0.16007 -0.121533 0
-0.14488 -0.138459 0
-0.12343 -0.146486 0
-0.0961973 -0.141773 0
-0.0652765 -0.121031 0
-0.0351434 -0.0841466 0
-0.012378 -0.0390031 0
-0.00187676 -0.00428774 0
-0.000660734 0.0187883 0
-0.00284423 0.0417946 0
-0.00640985 0.0550104 0
-0.0108027 0.0623048 0
-0.0157036 0.0663303 0
-0.0209763 0.0687212 0
-0.0266122 0.0704046 0
-0.0326889 0.0718665 0
-0.0393418 0.073331 0
-0.0467409 0.0748594 0
-0.0550646 0.0763824 0
-0.0644647 0.077685 0
-0.0750251 0.0783706 0
-0.0867209 0.0778419 0
-0.0993898 0.0753316 0
-0.112725 0.0699979 0
-0.126289 0.061065 0
-0.139536 0.0479706 0
-0.151855 0.0304884 0
-0.162601 0.00880506 0
-0.171141 -0.0164497 0
-0.176963 -0.0445229 0
-0.179552 -0.0742739 0
-0.178189 -0.104117 0
-0.171948 -0.132048 0
-0.159719 -0.155364 0
-0.140454 -0.170295 0
-0.113772 -0.171879 0
-0.0809502 -0.154668 0
-0.0462069 -0.115386 0
-0.0174199 -0.0593164 0
-0.00286555 -0.00903006 0
-0.000612737 0.0200618 0
-0.00266875 0.0447606 0
-0.00606067 0.0590019 0
-0.0102491 0.0668946 0
-0.0149088 0.071301 0
-0.0198942 0.0740087 0
-0.0251904 0.0760492 0
-0.0308711 0.0779792 0
-0.0370684 0.0800685 0
-0.0439477 0.0824004 0
-0.0516803 0.0848978 0
-0.060411 0.0873005 0
-0.0702229 0.0891274 0
-0.0811062 0.0896641 0
-0.0929388 0.0880109 0
-0.105482 0.0831973 0
-0.11839 0.0743366 0
-0.131226 0.0607831 0
-0.143489 0.0422576 0
-0.154638 0.0189303 0
-0.164124 -0.00854841 0
-0.171518 -0.0392076 0
-0.17643 -0.0720889 0
-0.178248 -0.105847 0
-0.175972 -0.138835 0
-0.168126 -0.168653 0
-0.152943 -0.191454 0
-0.128989 -0.201356 0
-0.0963484 -0.190653 0
-0.0584018 -0.152091 0
-0.0236857 -0.0861144 0
-0.00428818 -0.0161838 0
-0.000565716 0.0212402 0
-0.00249269 0.0475651 0
-0.00569634 0.062793 0
-0.00964262 0.0712383 0
-0.0139923 0.0759666 0
-0.018584 0.0789203 0
-0.0233882 0.081238 0
-0.0284644 0.0835472 0
-0.0339288 0.0861622 0
-0.039928 0.0891852 0
-0.0466129 0.0925305 0
-0.054113 0.0958985 0
-0.0625101 0.0987385 0
-0.071819 0.100245 0
-0.0819751 0.0994186 0
-0.092832 0.0951898 0
-0.104165 0.0865846 0
-0.115678 0.0728849 0
-0.12702 0.0537599 0
-0.137799 0.0293563 0
-0.147623 0.000336505 0
-0.156162 -0.0321603 0
-0.163181 -0.0672044 0
-0.168303 -0.103792 0
-0.170596 -0.140873 0
-0.168335 -0.176722 0
-0.15906 -0.207844 0
-0.14016 -0.22782 0
-0.110188 -0.226801 0
-0.0710793 -0.192999 0
-0.0311876 -0.119815 0
-0.00629839 -0.0267704 0
-0.000529065 0.022335 0
-0.00234932 0.0502176 0
-0.0053775 0.0663724 0
-0.00906615 0.0752938 0
-0.0130534 0.0802479 0
-0.0171569 0.0833342 0
-0.0213277 0.085799 0
-0.0256043 0.088339 0
-0.0300783 0.0913089 0
-0.0348678 0.0948271 0
-0.0400953 0.0988011 0
-0.0458695 0.102902 0
-0.052271 0.106533 0
-0.0593432 0.108831 0
-0.067088 0.108733 0
-0.0754635 0.105107 0
-0.0843826 0.0969189 0
-0.0937125 0.0833941 0
-0.103279 0.064158 0
-0.112875 0.0393338 0
-0.122287 0.00959585 0
-0.131324 -0.0238448 0
-0.139958 -0.0598661 0
-0.148131 -0.0978357 0
-0.155155 -0.137512 0
-0.159249 -0.178249 0
-0.157391 -0.21745 0
-0.145779 -0.248726 0
-0.121174 -0.260471 0
-0.0834647 -0.236147 0
-0.0398345 -0.160188 0
-0.00902595 -0.0420947 0
-0.00051599 0.0233801 0
-0.00228524 0.052762 0
-0.00518854 0.0697594 0
-0.00863473 0.0790416 0
-0.0122299 0.0840825 0
-0.01577 0.0871433 0
-0.0191868 0.0895776 0
-0.0224973 0.0921475 0
-0.025766 0.0952431 0
-0.0290795 0.0989959 0
-0.0325292 0.10331 0
-0.0362018 0.10784 0
-0.0401756 0.11197 0
-0.0445221 0.114813 0
-0.0493088 0.115283 0
-0.0545978 0.112222 0
-0.0604409 0.104566 0
-0.0668731 0.091509 0
-0.0739088 0.0726448 0
-0.0815443 0.0480787 0
-0.0897735 0.0184927 0
-0.0985999 -0.0148788 0
-0.108184 -0.050614 0
-0.118787 -0.0883121 0
-0.130146 -0.128652 0
-0.140711 -0.172451 0
-0.147178 -0.218639 0
-0.1447 -0.261628 0
-0.128115 -0.288759 0
-0.0947117 -0.278971 0
-0.0493979 -0.206308 0
-0.0125304 -0.063651 0
-0.00054499 0.0244411 0
-0.00236455 0.0552898 0
-0.00524278 0.0730131 0
-0.00849899 0.0824903 0
-0.0116986 0.0874286 0
-0.0146215 0.0902601 0
-0.0171888 0.092445 0
-0.019403 0.0948047 0
-0.0213067 0.0977582 0
-0.022959 0.101447 0
-0.0244239 0.105774 0
-0.0257682 0.110393 0
-0.0270677 0.114691 0
-0.0284178 0.11779 0
-0.0299429 0.118619 0
-0.0317986 0.116031 0
-0.0341647 0.108966 0
-0.0372369 0.0966136 0
-0.0412189 0.078558 0
-0.0463146 0.0548967 0
-0.0527319 0.0263213 0
-0.0607053 -0.00590762 0
-0.0705262 -0.0401803 0
-0.0826672 -0.0760022 0
-0.097386 -0.114883 0
-0.113697 -0.159344 0
-0.12849 -0.210485 0
-0.136255 -0.264496 0
-0.129983 -0.308748 0
-0.103924 -0.318445 0
-0.0595027 -0.25657 0
-0.0167888 -0.0929703 0
-0.00064283 0.0256289 0
-0.00267653 0.0579553 0
-0.00569102 0.0762404 0
-0.00885007 0.0856783 0
-0.0116737 0.0902639 0
-0.0139424 0.0926164 0
-0.0155861 0.0942998 0
-0.0166084 0.0961863 0
-0.0170427 0.0987146 0
-0.0169312 0.102031 0
-0.0163191 0.106042 0
-0.0152601 0.11041 0
-0.0138291 0.114542 0
-0.0121387 0.117598 0
-0.0103576 0.118554 0
-0.00871778 0.116312 0
-0.00750624 0.109841 0
-0.00706261 0.0983677 0
-0.00777186 0.0814951 0
-0.0100464 0.0593297 0
-0.014314 0.0325733 0
-0.0210022 0.00250197 0
-0.030485 -0.0292862 0
-0.0432563 -0.061984 0
-0.0599277 -0.0975109 0
-0.0803629 -0.13997 0
-0.102309 -0.193119 0
-0.12031 -0.256096 0
-0.125918 -0.317812 0
-0.110116 -0.351242 0
-0.0696033 -0.308706 0
-0.0216961 -0.131455 0
-0.000850602 0.0271223 0
-0.00335033 0.0609953 0
-0.00673611 0.0796007 0
-0.00992677 0.0886677 0
-0.0124044 0.0925758 0
-0.0139845 0.0941533 0
-0.0146385 0.0950606 0
-0.0143964 0.0962057 0
-0.013301 0.0980341 0
-0.0113917 0.100691 0
-0.00870713 0.104085 0
-0.00529761 0.107898 0
-0.00123959 0.111565 0
0.0033441 0.114301 0
0.00825491 0.11516 0
0.0131975 0.113124 0
0.0177777 0.107237 0
0.0215186 0.0967872 0
0.0238822 0.0814213 0
0.0242938 0.0612664 0
0.0221763 0.0370217 0
0.0169759 0.00994207 0
0.0082027 -0.0184702 0
-0.00447478 -0.0473512 0
-0.0215867 -0.0783605 0
-0.0438227 -0.116449 0
-0.0704778 -0.168039 0
-0.0972445 -0.236408 0
-0.115139 -0.313997 0
-0.112072 -0.373927 0
-0.078878 -0.359727 0
-0.0270342 -0.180185 0
-0.00123592 0.0292088 0
-0.00458193 0.0647545 0
-0.00865604 0.0833014 0
-0.0120231 0.0915248 0
-0.0141654 0.0943386 0
-0.0149963 0.0948015 0
-0.0145793 0.0946494 0
-0.0130037 0.0947993 0
-0.0103425 0.0956838 0
-0.00664611 0.0974355 0
-0.00195602 0.0999661 0
0.00368183 0.10297 0
0.0101917 0.105925 0
0.0174308 0.108118 0
0.0251615 0.108701 0
0.0330299 0.106771 0
0.0405554 0.101483 0
0.0471465 0.0922086 0
0.0521304 0.0786524 0
0.054792 0.0609621 0
0.0544325 0.039803 0
0.0504569 0.0163367 0
0.0424746 -0.00810941 0
0.0304007 -0.0329607 0
0.0140961 -0.0593346 0
-0.00748081 -0.0916622 0
-0.0354388 -0.138213 0
-0.0678503 -0.207056 0
-0.0968092 -0.296496 0
-0.10811 -0.383196 0
-0.0859892 -0.405773 0
-0.0323765 -0.239596 0
-0.00191692 0.0323617 0
-0.00668115 0.0697119 0
-0.0118331 0.08757 0
-0.0154832 0.0942732 0
-0.0172205 0.0954698 0
-0.0171656 0.0944463 0
-0.0155426 0.0929645 0
-0.0125379 0.0919039 0
-0.00827256 0.0916525 0
-0.00281616 0.092314 0
0.00378768 0.0937937 0
0.0114936 0.0957989 0
0.0202191 0.0978615 0
0.029803 0.0993586 0
0.0399729 0.0995595 0
0.0503245 0.097693 0
0.0603124 0.093048 0
0.0692658 0.0850995 0
0.0764247 0.0736187 0
0.0809967 0.0587622 0
0.0822408 0.0411183 0
0.0795861 0.0216518 0
0.0727427 0.00140129 0
0.0616549 -0.0193097 0
0.0463312 -0.0413573 0
0.0264262 -0.0681576 0
0.00038118 -0.107714 0
-0.0331616 -0.1716 0
-0.069898 -0.266256 0
-0.0957528 -0.37628 0
-0.0886694 -0.441892 0
-0.036893 -0.308865 0
-0.00310675 0.0373853 0
-0.0101404 0.0764861 0
-0.0167598 0.0925672 0
-0.0206269 0.0967932 0
-0.021686 0.0957463 0
-0.0204372 0.092866 0
-0.0173504 0.089835 0
-0.012742 0.0874203 0
-0.0067896 0.0859185 0
0.000419761 0.0853822 0
0.00884424 0.0856971 0
0.0184439 0.0865898 0
0.0291324 0.0876566 0
0.0407343 0.0883777 0
0.0529538 0.088151 0
0.0653549 0.086349 0
0.0773574 0.0824016 0
0.0882559 0.0758941 0
0.0972635 0.0666576 0
0.103581 0.0548341 0
0.106491 0.040892 0
0.105477 0.0255464 0
0.100315 0.00951219 0
0.0909948 -0.00701234 0
0.0775264 -0.0248626 0
0.059702 -0.046923 0
0.0366008 -0.0798025 0
0.00598503 -0.135353 0
-0.0330983 -0.226683 0
-0.0714034 -0.351693 0
-0.0831045 -0.461862 0
-0.0390094 -0.384768 0
-0.00518028 0.0456724 0
-0.0156738 0.0857262 0
-0.0238714 0.0981441 0
-0.0273857 0.0985978 0
-0.0270195 0.0946347 0
-0.0238957 0.089605 0
-0.0188083 0.0849219 0
-0.0122148 0.0811314 0
-0.00434035 0.0783805 0
0.00472758 0.0766429 0
0.0149647 0.0757748 0
0.026346 0.0755311 0
0.038792 0.0755809 0
0.0521299 0.0755136 0
0.0660638 0.0748616 0
0.0801579 0.0731431 0
0.0938382 0.0699246 0
0.106418 0.0648933 0
0.117144 0.0579242 0
0.125274 0.0491205 0
0.130162 0.0388074 0
0.131357 0.0274489 0
0.12867 0.0154588 0
0.122141 0.00289089 0
0.111819 -0.0109757 0
0.0974235 -0.0285897 0
0.0780736 -0.0556848 0
0.0517897 -0.102571 0
0.0153961 -0.183988 0
-0.0301762 -0.310511 0
-0.0631353 -0.458384 0
-0.0358494 -0.459627 0
-0.00867965 0.0595323 0
-0.0238671 0.0975473 0
-0.032531 0.103184 0
-0.033775 0.0983156 0