# vtk DataFile Version 2.0
Lid-driven cavity
ASCII
DATASET STRUCTURED_POINTS
DIMENSIONS 32 32 1
ORIGIN 0.015625 0.015625 0
SPACING 0.03125 0.03125 1
POINT_DATA 1024
SCALARS pressure double 1
LOOKUP_TABLE default
10.0061
9.97926
9.94805
9.92636
9.91977
9.92974
9.95652
10.0005
10.0628
10.1446
10.2476
10.3725
10.5194
10.6869
10.8715
11.0678
11.2683
11.4634
11.6423
11.7941
11.9088
11.9801
12.0057
11.9886
11.9365
11.8606
11.7735
11.6872
11.612
11.5568
11.5279
11.5261
10.0329
10.0049
9.9807
9.9665
9.96531
9.97828
10.006
10.0494
10.1094
10.1877
10.2854
10.4036
10.5422
10.6998
10.8735
11.0582
11.2469
11.4306
11.5992
11.7422
11.8504
11.9177
11.9424
11.9279
11.8818
11.8147
11.7384
11.6637
11.5989
11.551
11.5252
11.5244
10.0645
10.0259
10.0011
9.98976
9.99153
10.006
10.0334
10.0745
10.1307
10.2035
10.2947
10.4055
10.5362
10.6861
10.8528
11.0317
11.2158
11.3964
11.563
11.7049
11.8122
11.8786
11.902
11.886
11.8392
11.7725
11.698
11.6265
11.5653
11.5202
11.4954
11.4948
10.0818
10.0302
10.0012
9.98974
9.99198
10.0059
10.0309
10.0677
10.1177
10.1831
10.2659
10.3679
10.4905
10.6336
10.7958
10.9732
11.1584
11.3424
11.5144
11.6624
11.7757
11.8462
11.871
11.8533
11.802
11.73
11.6508
11.5755
11.5119
11.4648
11.4379
11.435
10.0694
10.0049
9.9706
9.957
9.95751
9.96848
9.98865
10.0185
10.0598
10.1149
10.1866
10.2776
10.3902
10.5256
10.6836
10.8617
11.0517
11.2446
11.4289
11.5916
11.7197
11.803
11.8363
11.8212
11.7666
11.6866
11.5972
11.5122
11.4399
11.3857
11.3529
11.345
10.0135
9.93694
9.89708
9.88015
9.87699
9.88261
9.89515
9.91495
9.94387
9.9848
10.0412
10.1168
10.2152
10.339
10.4898
10.6668
10.8628
11.0681
11.2714
11.4584
11.6139
11.7239
11.7793
11.7781
11.7274
11.6416
11.5394
11.4386
11.3511
11.2836
11.24
11.2242
9.90063
9.81311
9.76777
9.74652
9.7378
9.73542
9.73698
9.74262
9.75429
9.77521
9.80954
9.86208
9.93781
10.0414
10.1766
10.3453
10.5432
10.7609
10.9883
11.2107
11.41
11.5674
11.6675
11.7017
11.6718
11.5903
11.4777
11.357
11.2468
11.1583
11.0975
11.07
9.7176
9.6201
9.56927
9.54257
9.52609
9.51248
9.49869
9.48451
9.47172
9.46369
9.46512
9.48188
9.52069
9.58863
9.6925
9.83793
10.0257
10.2493
10.5021
10.77
11.0327
11.2657
11.4443
11.5493
11.572
11.5178
11.4065
11.2665
11.1263
11.0068
10.921
10.8763
9.45126
9.34474
9.28812
9.25435
9.22717
9.19795
9.16278
9.12075
9.07308
9.02288
8.97514
8.93679
8.91656
8.92466
8.97202
9.0692
9.22412
9.43694
9.70838
10.0279
10.3743
10.7168
11.0196
11.2475
11.3743
11.3908
11.3088
11.1601
10.9862
10.8252
10.7026
10.633
9.08912
8.9745
8.9113
8.86805
8.82609
8.77529
8.7105
8.62955
8.53251
8.42173
8.3021
8.18148
8.07097
7.98473
7.93923
7.95183
8.03849
8.20992
8.4811
8.84913
9.29479
9.78269
10.2641
10.6838
10.9898
11.1468
11.1477
11.0195
10.817
10.6038
10.4301
10.3255
8.62008
8.49828
8.42718
8.37106
8.30884
8.2286
8.1234
7.98913
7.82399
7.62884
7.40794
7.16996
6.92862
6.70293
6.51647
6.39565
6.36669
6.45108
6.68589
7.08433
7.6336
8.29671
9.0134
9.70539
10.2877
10.6859
10.8572
10.8084
10.6005
10.3298
10.0887
9.93393
8.03553
7.9075
7.82663
7.75328
7.66397
7.54465
7.38596
7.18108
6.92546
6.61766
6.26069
5.86368
5.44319
5.02389
4.63801
4.32326
4.11894
4.06028
4.20282
4.59394
5.23239
6.08501
7.08413
8.12977
9.09931
9.8671
10.3343
10.4635
10.3037
9.9833
9.657
9.43256
7.3305
7.19729
7.10436
7.00875
6.88461
6.71543
6.48881
6.19442
5.82405
5.37304
4.84244
4.24142
3.58935
2.91717
2.2671
1.6903
1.2422
0.975138
0.954782
1.28017
1.96912
2.99987
4.30516
5.76964
7.23467
8.51588
9.43848
9.88966
9.87379
9.53559
9.10888
8.79023
6.50481
6.36759
6.26028
6.13728
5.97052
5.74078
5.43209
5.02981
4.52125
3.89769
3.15742
2.30903
1.37451
0.391281
-0.587613
-1.49583
-2.25914
-2.80375
-3.05955
-2.87774
-2.2032
-1.03873
0.559281
2.47204
4.51474
6.44604
8.00146
8.95947
9.23313
8.9464
8.41498
7.97206
5.56379
5.42397
5.30038
5.14562
4.92966
4.63043
4.22797
3.70281
3.03703
2.21712
1.23785
0.106578
-1.15261
-2.49604
-3.85961
-5.16108
-6.30597
-7.19723
-7.74834
-7.79684
-7.22306
-6.0035
-4.17226
-1.83524
0.815377
3.49572
5.851
7.52393
8.28099
8.16263
7.54275
6.93938
4.51846
4.37772
4.23698
4.04792
3.77888
3.40493
2.90197
2.24534
1.41147
0.381496
-0.853971
-2.28946
-3.89954
-5.63491
-7.42098
-9.1599
-10.7368
-12.0306
-12.9291
-13.2798
-12.9036
-11.7347
-9.77546
-7.10109
-3.88552
-0.42682
2.84814
5.43594
6.90315
7.12118
6.4599
5.65436
3.3849
3.24523
3.0881
2.86513
2.54335
2.09513
1.49224
0.704789
-0.296599
-1.53643
-3.02867
-4.77038
-6.7356
-8.87051
-11.0913
-13.2858
-15.3202
-17.05
-18.3363
-19.0334
-18.9422
-17.9414
-15.9929
-13.1268
-9.47085
-5.29813
-1.06805
2.58586
4.99372
5.76004
5.14357
4.09202
2.18279
2.04646
1.8759
1.62338
1.25485
0.740141
0.0470749
-0.8593
-2.01402
-3.44723
-5.17767
-7.20547
-9.50503
-12.0194
-14.6574
-17.2952
-19.7823
-21.954
-23.6473
-24.7115
-24.959
-24.2345
-22.4463
-19.5724
-15.6717
-10.949
-5.83865
-1.05602
2.48872
4.04127
3.59982
2.26313
0.933228
0.802598
0.62423
0.351438
-0.0510273
-0.615908
-1.37913
-2.38039
-3.66006
-5.25363
-7.18457
-9.45642
-12.0449
-14.8915
-17.9003
-20.9383
-23.8429
-26.4331
-28.5267
-29.9585
-30.5627
-30.1859
-28.6913
-25.9989
-22.089
-17.0619
-11.2598
-5.40074
-0.59332
1.9866
1.89838
0.25526
-0.343972
-0.466672
-0.644224
-0.922331
-1.3382
-1.9277
-2.7306
-3.79104
-5.15422
-6.86048
-8.93774
-11.3931
-14.2043
-17.3132
-20.6216
-23.9916
-27.2523
-30.2117
-32.6739
-34.4586
-35.413
-35.4037
-34.2922
-31.939
-28.2507
-23.2036
-16.9867
-10.2193
-4.11467
-0.280034
0.220896
-1.70939
-1.63328
-1.74632
-1.91107
-2.17303
-2.57334
-3.15251
-3.95481
-5.02876
-6.42382
-8.18441
-10.3422
-12.9077
-15.8613
-19.1468
-22.6667
-26.2821
-29.8189
-33.0795
-35.8595
-37.9681
-39.2515
-39.5963
-38.8902
-36.9763
-33.6906
-28.8917
-22.574
-15.1513
-7.80015
-2.49566
-1.08623
-3.20577
-2.92782
-3.02945
-3.16518
-3.38195
-3.72849
-4.25318
-5.00634
-6.04106
-7.41034
-9.16157
-11.3292
-13.9261
-16.9358
-20.3052
-23.9399
-27.7045
-31.4268
-34.9091
-37.9442
-40.3345
-41.918
-42.5889
-42.2596
-40.8093
-38.0277
-33.6762
-27.5451
-19.7496
-11.2507
-4.24277
-1.4676
-3.53527
-4.23106
-4.32171
-4.40602
-4.53848
-4.78274
-5.20001
-5.84935
-6.78896
-8.07488
-9.75646
-11.8696
-14.4286
-17.4185
-20.7883
-24.4471
-28.2638
-32.0725
-35.6826
-38.8929
-41.5086
-43.3584
-44.3233
-44.3231
-43.2821
-41.019
-37.2142
-31.4742
-23.5514
-13.9924
-4.96708
-0.134644
-1.6558
-5.5605
-5.64109
-5.64523
-5.64264
-5.72414
-5.97291
-6.46076
-7.25186
-8.40428
-9.96746
-11.9765
-14.4449
-17.3572
-20.663
-24.2737
-28.0627
-31.8709
-35.5166
-38.8093
-41.5645
-43.6167
-44.8365
-45.1257
-44.407
-42.5733
-39.3084
-34.0478
-26.1512
-15.5459
-4.02728
3.93468
3.89453
-6.95644
-7.02535
-6.90562
-6.70036
-6.54536
-6.5569
-6.82417
-7.41743
-8.39476
-9.80283
-11.6731
-14.0157
-16.8127
-20.0129
-23.5286
-27.2371
-30.9854
-34.6006
-37.9022
-40.7171
-42.89
-44.2922
-44.8169
-44.359
-42.7997
-39.9054
-35.0778
-27.2322
-15.4741
-0.749688
11.9844
15.1035
-8.50085
-8.54911
-8.23179
-7.72482
-7.24084
-6.94013
-6.93059
-7.28582
-8.05967
-9.29188
-11.0068
-13.2084
-15.8744
-18.9511
-22.3513
-25.9548
-29.6142
-33.1637
-36.4313
-39.2517
-41.4774
-42.9844
-43.6616
-43.386
-41.9904
-39.2091
-34.4533
-26.5086
-13.333
5.58449
25.4989
34.6684
-10.3501
-10.3423
-9.69617
-8.74054
-7.80739
-7.11494
-6.7807
-6.8723
-7.43163
-8.48581
-10.0481
-12.1138
-14.6543
-17.6126
-20.9009
-24.4011
-27.9701
-31.4481
-34.6688
-37.4716
-39.7107
-41.2608
-42.0112
-41.8166
-40.4616
-37.5711
-32.4348
-23.5701
-8.43737
15.9579
46.3468
66.3322
-12.8263
-12.6382
-11.4045
-9.77138
-8.23956
-7.07455
-6.38321
-6.20565
-6.55974
-7.45301
-8.88376
-10.8363
-13.2749
-16.1384
-19.3377
-22.7563
-26.2546
-29.6772
-32.8617
-35.6485
-37.8883
-39.4451
-40.1932
-39.9861
-38.5324
-35.3065
-29.2994
-18.5113
0.569019
32.2411
77.2359
115.434
-16.6681
-15.8642
-13.4878
-10.8058
-8.49355
-6.79063
-5.7364
-5.3107
-5.49171
-6.26018
-7.59642
-9.47275
-11.8456
-14.6496
-17.794
-21.1635
-24.621
-28.0141
-31.1825
-33.9655
-36.2063
-37.7517
-38.4431
-38.0948
-36.4052
-32.5786
-25.1173
-11.182
14.3031
58.0092
122.783
189.448
-23.7503
-20.6988
-15.9385
-11.6274
-8.35742
-6.11127
-4.73978
-4.129
-4.20144
-4.90566
-6.20285
-8.05349
-10.4067
-13.1931
-16.3205
-19.6741
-23.1189
-26.5046
-29.672
-32.4579
-34.6961
-36.2125
-36.8073
-36.2178
-34.0506
-29.3167
-19.6377
-0.893213
34.2394
96.246
192.83
296.795
-38.8766
-27.15
-17.586
-11.1064
-6.90356
-4.30145
-2.83699
-2.24343
-2.37533
-3.15151
-4.51955
-6.43337
-8.83912
-11.6664
-14.8238
-18.1983
-21.6576
-25.0541
-28.2296
-31.0182
-33.2441
-34.7104
-35.1693
-34.2612
-31.3942
-25.2787
-12.4909
12.698
60.6524
148.718
302.129
515.879
-80.8862
-27.5174
-10.4518
-3.94827
-0.900175
0.637179
1.27799
1.24827
0.639958
-0.505643
-2.16313
-4.30474
-6.88947
-9.85657
-13.1226
-16.5812
-20.1062
-23.5547
-26.7712
-29.5889
-31.8247
-33.2621
-33.6088
-32.4057
-28.8248
-21.0903
-5.19883
25.7895
84.7185
196.812
422.408
929.48
VECTORS velocity double
5.72507e-05 -5.72508e-05 0
0.00012159 -7.08911e-06 0
4.92922e-05 7.93872e-05 0
-0.000184226 0.000154131 0
-0.000547412 0.000209054 0
-0.00100616 0.000249699 0
-0.00153825 0.000282386 0
-0.00213049 0.000309853 0
-0.00277136 0.000331017 0
-0.00344454 0.00034217 0
-0.00412503 0.000338314 0
-0.00477759 0.000314241 0
-0.00535723 0.000265405 0
-0.00581141 0.000188767 0
-0.00608392 8.37476e-05 0
-0.00612099 -4.66745e-05 0
-0.00587952 -0.000194797 0
-0.0053356 -0.000349123 0
-0.00449228 -0.000494205 0
-0.00338645 -0.000611625 0
-0.0020924 -0.000682427 0
-0.000719162 -0.000690806 0
0.000600202 -0.000628559 0
0.00172822 -0.00049946 0
0.00254668 -0.000319002 0
0.00297932 -0.000113638 0
0.00300759 8.53655e-05 0
0.00267143 0.000250802 0
0.00205698 0.000363646 0
0.00129286 0.000400469 0
0.000564466 0.000327928 0
0.000118269 0.000118269 0
3.09097e-06 -0.000117593 0
-0.00015007 0.000142074 0
-0.000651955 0.000504406 0
-0.00150678 0.000817452 0
-0.00265197 0.00105411 0
-0.00402086 0.00123228 0
-0.00556158 0.00137261 0
-0.00723272 0.001483 0
-0.00899153 0.00155756 0
-0.0107837 0.00158094 0
-0.0125373 0.00153366 0
-0.0141623 0.00139649 0
-0.0155536 0.00115405 0
-0.0165973 0.000798068 0
-0.0171809 0.000330559 0
-0.0172047 -0.000232679 0
-0.0165966 -0.000858357 0
-0.015325 -0.00150106 0
-0.0134085 -0.00210212 0
-0.0109251 -0.00259291 0
-0.00801756 -0.00290274 0
-0.00489052 -0.00297077 0
-0.00179771 -0.00276076 0
0.000983242 -0.00227623 0
0.00319209 -0.00156955 0
0.0046336 -0.000737238 0
0.00521598 9.83116e-05 0
0.00497411 0.000815889 0
0.00406151 0.0013256 0
0.00273171 0.00153243 0
0.00133744 0.00131864 0
0.000337327 0.000573865 0
-0.000122127 1.44312e-06 0
-0.000669019 0.000723091 0
-0.00179405 0.0015503 0
-0.00341531 0.00224764 0
-0.00542648 0.0027803 0
-0.00773624 0.00318474 0
-0.0102728 0.00349739 0
-0.0129719 0.00372848 0
-0.0157625 0.00386154 0
-0.0185564 0.00386292 0
-0.0212439 0.00369283 0
-0.0236962 0.00331466 0
-0.0257714 0.00270232 0
-0.0273241 0.00184631 0
-0.0282173 0.000759074 0
-0.028335 -0.00051974 0
-0.0275956 -0.00191879 0
-0.0259618 -0.00334599 0
-0.0234507 -0.00468481 0
-0.0201449 -0.0057994 0
-0.0162009 -0.00654786 0
-0.0118509 -0.00680267 0
-0.00739594 -0.00647661 0
-0.00318532 -0.00555195 0
0.000419199 -0.0041072 0
0.00310167 -0.00232357 0
0.00466259 -0.000458659 0
0.00507073 0.00120659 0
0.00447678 0.00244146 0
0.00318607 0.00303708 0
0.00163815 0.00275618 0
0.0004317 0.00134289 0
-0.000281602 0.000405172 0
-0.00131966 0.00190431 0
-0.00319257 0.00336702 0
-0.00568807 0.00454768 0
-0.00864013 0.00544349 0
-0.011933 0.00612413 0
-0.0154807 0.00664229 0
-0.0192034 0.00700539 0
-0.0230089 0.0071807 0
-0.0267837 0.00711239 0
-0.0303921 0.00673934 0
-0.0336809 0.00600926 0
-0.0364874 0.00488943 0
-0.03865 0.00337455 0
-0.0400191 0.00149308 0
-0.0404676 -0.000687548 0
-0.0398989 -0.00305906 0
-0.038254 -0.00548447 0
-0.035523 -0.00778841 0
-0.0317617 -0.00976289 0
-0.0271054 -0.0111847 0
-0.0217785 -0.0118427 0
-0.0160955 -0.0115745 0
-0.0104498 -0.0103104 0
-0.00528329 -0.00811975 0
-0.00103353 -0.00524325 0
0.00194782 -0.00208125 0
0.00349751 0.000871355 0
0.00370884 0.00315931 0
0.00290265 0.00441612 0
0.00157818 0.00424952 0
0.0004298 0.00220439 0
-0.000462355 0.00114913 0
-0.00205148 0.00378755 0
-0.00474951 0.00605472 0
-0.00818954 0.0077955 0
-0.0121382 0.0090964 0
-0.0164566 0.0100825 0
-0.0210502 0.0108252 0
-0.0258298 0.0113248 0
-0.0306906 0.0115275 0
-0.0355034 0.0113532 0
-0.0401166 0.0107201 0
-0.0443618 0.00956251 0
-0.0480629 0.00784379 0
-0.0510449 0.00556483 0
-0.0531428 0.0027698 0
-0.0542086 -0.000450029 0
-0.0541169 -0.00395696 0
-0.0527696 -0.00757882 0
-0.0501094 -0.0110852 0
-0.0461433 -0.0141935 0
-0.0409639 -0.0165899 0
-0.0347662 -0.0179622 0
-0.0278586 -0.0180455 0
-0.0206629 -0.0166809 0
-0.0136947 -0.0138841 0
-0.00751484 -0.00990847 0
-0.00264258 -0.00526964 0
0.000563297 -0.000695833 0
0.00204658 0.00303189 0
0.00210209 0.00529424 0
0.00128709 0.00551087 0
0.00037216 0.00300635 0
-0.000658352 0.00226984 0
-0.00283608 0.0064337 0
-0.00640192 0.00967243 0
-0.0108247 0.0120406 0
-0.015805 0.0137803 0
-0.0211855 0.0150975 0
-0.026868 0.0160863 0
-0.0327609 0.0167362 0
-0.0387531 0.016969 0
-0.0447073 0.0166787 0
-0.0504618 0.0157623 0
-0.055837 0.0141407 0
-0.0606425 0.0117722 0
-0.0646847 0.0086606 0
-0.0677729 0.00486017 0
-0.0697259 0.000478331 0
-0.0703774 -0.00432551 0
-0.0695809 -0.00935413 0
-0.067222 -0.014329 0
-0.0632468 -0.0188909 0
-0.0576909 -0.0226277 0
-0.0507028 -0.0251101 0
-0.0425647 -0.0259433 0
-0.0337053 -0.0248381 0
-0.0246985 -0.021702 0
-0.0162287 -0.0167403 0
-0.00900628 -0.0105325 0
-0.00362092 -0.00402417 0
-0.000365191 0.0016212 0
0.000930221 0.005354 0
0.000860814 0.00633551 0
0.000289469 0.00366798 0
-0.00086375 0.00379194 0
-0.0036476 0.00987318 0
-0.00809363 0.0142448 0
-0.0135075 0.0173049 0
-0.0195312 0.0195201 0
-0.0259953 0.0212022 0
-0.0328031 0.0224719 0
-0.0398647 0.023305 0
-0.0470678 0.0235956 0
-0.0542706 0.0232091 0
-0.0613033 0.0220191 0
-0.0679737 0.0199295 0
-0.074073 0.0168882 0
-0.079381 0.0128948 0
-0.0836728 0.00800597 0
-0.0867254 0.00233811 0
-0.0883269 -0.00393229 0
-0.0882829 -0.0105879 0
-0.0864235 -0.0173136 0
-0.0826295 -0.0236754 0
-0.0768696 -0.029159 0
-0.0692286 -0.0332079 0
-0.0599365 -0.0352758 0
-0.0493973 -0.034904 0
-0.0382095 -0.0318307 0
-0.0271587 -0.0261321 0
-0.0171547 -0.0183672 0
-0.00907574 -0.00965378 0
-0.00352401 -0.00155664 0
-0.000566063 0.00427848 0
0.000347723 0.00656665 0
0.000199227 0.00415668 0
-0.00107042 0.00572611 0
-0.00445431 0.0141067 0
-0.00976064 0.0197636 0
-0.0161414 0.0235807 0
-0.0231901 0.0263167 0
-0.0307312 0.0284107 0
-0.0386729 0.0300129 0
-0.0469294 0.0310822 0
-0.055389 0.0314812 0
-0.0639061 0.0310433 0
-0.0723022 0.0296137 0
-0.0803703 0.0270735 0
-0.0878791 0.0233524 0
-0.0945784 0.018438 0
-0.100206 0.0123823 0
-0.104497 0.00530547 0
-0.107194 -0.00260114 0
-0.108063 -0.0110939 0
-0.106889 -0.019841 0
-0.10349 -0.0283409 0
-0.0977624 -0.0359816 0
-0.0897094 -0.0420793 0
-0.0794805 -0.0459254 0
-0.0674132 -0.0468609 0
-0.054079 -0.0443958 0
-0.0403148 -0.038382 0
-0.0272016 -0.0292346 0
-0.0159343 -0.0181326 0
-0.00753135 -0.00703254 0
-0.00244249 0.00170757 0
-0.000263244 0.00604453 0
0.000104077 0.00445998 0
-0.00126726 0.00806379 0
-0.00521581 0.0191015 0
-0.0113252 0.0261846 0
-0.0186102 0.0308256 0
-0.0266256 0.0341359 0
-0.0351936 0.0367005 0
-0.0442284 0.0386995 0
-0.0536482 0.0400719 0
-0.0633419 0.0406447 0
-0.0731594 0.0402143 0
-0.0829129 0.0385923 0
-0.0923797 0.0356298 0
-0.101307 0.0312317 0
-0.109416 0.025367 0
-0.116412 0.0180778 0
-0.121997 0.00948555 0
-0.125876 -0.000204801 0
-0.127784 -0.0107129 0
-0.127473 -0.0217074 0
-0.12471 -0.0326366 0
-0.119317 -0.0428062 0
-0.111208 -0.0514172 0
-0.100421 -0.0576028 0
-0.0871825 -0.0604897 0
-0.0719723 -0.0593114 0
-0.0556024 -0.0536004 0
-0.039256 -0.0434758 0
-0.0244216 -0.029993 0
-0.0126134 -0.0153833 0
-0.00483187 -0.0028121 0
-0.0010158 0.00456888 0
-5.77847e-06 0.00455828 0
-0.0014405 0.0107715 0
-0.0058838 0.0247856 0
-0.0126965 0.0334226 0
-0.0207783 0.0389542 0
-0.0296528 0.0428972 0
-0.039141 0.0459955 0
-0.0491611 0.0484595 0
-0.0596341 0.0502049 0
-0.070448 0.0510192 0
-0.0814485 0.0506578 0
-0.0924393 0.0488932 0
-0.103185 0.0455416 0
-0.113416 0.040478 0
-0.122836 0.0336492 0
-0.131129 0.0250849 0
-0.137972 0.0149066 0
-0.143052 0.00333301 0
-0.146075 -0.00931915 0
-0.146776 -0.0227114 0
-0.144896 -0.0362767 0
-0.140191 -0.0492634 0
-0.132476 -0.0607845 0
-0.12166 -0.0698374 0
-0.107813 -0.0753414 0
-0.0912549 -0.076228 0
-0.0726796 -0.071629 0
-0.0532653 -0.0612079 0
-0.0347075 -0.0456531 0
-0.0190227 -0.0272162 0
-0.00794246 -0.00984091 0
-0.0020157 0.00185486 0
-0.000152961 0.00439954 0
-0.00157486 0.0137869 0
-0.00640571 0.0310444 0
-0.013777 0.0413478 0
-0.0224997 0.0478335 0
-0.0320715 0.0524643 0
-0.042309 0.056154 0
-0.0531311 0.0591432 0
-0.064459 0.0613221 0
-0.0761792 0.0624361 0
-0.0881343 0.0621965 0
-0.100123 0.0603341 0
-0.111904 0.0566275 0
-0.123201 0.0509202 0
-0.133711 0.0431361 0
-0.143112 0.0332922 0
-0.151079 0.0215095 0
-0.157288 0.00801891 0
-0.161432 -0.00683799 0
-0.163246 -0.0226766 0
-0.162471 -0.0389672 0
-0.158815 -0.054934 0
-0.152001 -0.0696427 0
-0.141798 -0.0819982 0
-0.128081 -0.090745 0
-0.110946 -0.0945168 0
-0.0908695 -0.0919925 0
-0.0688919 -0.0822363 0
-0.0467751 -0.0652993 0
-0.0269549 -0.0430751 0
-0.0119987 -0.0200184 0
-0.00337683 -0.00251634 0
-0.000357701 0.00388888 0
-0.00165539 0.0170171 0
-0.00673049 0.0377201 0
-0.0144721 0.0497849 0
-0.0236332 0.0572802 0
-0.0336869 0.0626432 0
-0.0444403 0.066966 0
-0.0558079 0.070521 0
-0.0677086 0.0731728 0
-0.0800275 0.0746244 0
-0.0926063 0.0745421 0
-0.105244 0.0726152 0
-0.117702 0.0685851 0
-0.129708 0.0622656 0
-0.140967 0.0535593 0
-0.151169 0.042473 0
-0.160002 0.0291278 0
-0.167157 0.0137655 0
-0.172345 -0.00325319 0
-0.175313 -0.0214783 0
-0.17581 -0.0404443 0
-0.173529 -0.0593935 0
-0.168126 -0.0773999 0
-0.159231 -0.0933403 0
-0.146504 -0.105846 0
-0.129762 -0.113293 0
-0.109162 -0.113894 0
-0.0854679 -0.106007 0
-0.0603281 -0.0887855 0
-0.0364282 -0.0633091 0
-0.0171538 -0.0340149 0
-0.00521127 -0.00908428 0
-0.000652374 0.0028788 0
-0.00166961 0.0203421 0
-0.00681545 0.0446161 0
-0.0147025 0.0585176 0
-0.0240597 0.0670658 0
-0.0343351 0.0731868 0
-0.0453185 0.0781593 0
-0.0569151 0.082292 0
-0.069039 0.0854265 0
-0.0815745 0.0872251 0
-0.0943664 0.0873121 0
-0.10722 0.0853371 0
-0.119908 0.0810084 0
-0.132173 0.0741142 0
-0.143745 0.064541 0
-0.154341 0.0522895 0
-0.163682 0.0374849 0
-0.1715 0.0203818 0
-0.177544 0.00136163 0
-0.181589 -0.0190793 0
-0.183419 -0.0405172 0
-0.182756 -0.0622638 0
-0.179218 -0.0834706 0
-0.172313 -0.10307 0
-0.161484 -0.119671 0
-0.146225 -0.131469 0
-0.126295 -0.136248 0
-0.102036 -0.131605 0
-0.0747856 -0.115578 0
-0.0472453 -0.0879566 0
-0.0234699 -0.052417 0
-0.00761515 -0.0184795 0
-0.00106325 0.00116318 0
-0.00160969 0.0236214 0
-0.00663298 0.0515059 0
-0.0144158 0.0672977 0
-0.0236995 0.0769265 0
-0.0339056 0.0838076 0
-0.044799 0.0894153 0
-0.0562694 0.0941028 0
-0.0682246 0.0976947 0
-0.0805499 0.0998177 0
-0.0930966 0.100058 0
-0.105683 0.0980315 0
-0.1181 0.0934186 0
-0.130119 0.0859888 0
-0.141502 0.0756202 0
-0.15201 0.0623149 0
-0.161418 0.0462091 0
-0.169517 0.0275739 0
-0.176114 0.00681052 0
-0.181038 -0.0155596 0
-0.184138 -0.0391062 0
-0.185209 -0.0632666 0
-0.183871 -0.0873438 0
-0.179548 -0.110425 0
-0.171482 -0.131212 0
-0.158831 -0.147839 0
-0.140888 -0.157751 0
-0.11745 -0.157797 0
-0.0893375 -0.144749 0
-0.0589971 -0.116666 0
-0.0308864 -0.0755936 0
-0.0106534 -0.0313908 0
-0.00161537 -0.00151544 0
-0.00147412 0.0267053 0
-0.00617583 0.0581471 0
-0.0135952 0.0758588 0
-0.0225248 0.0865786 0
-0.0323592 0.094196 0
-0.04283 0.100391 0
-0.0538063 0.105574 0
-0.0651889 0.109562 0
-0.0768658 0.111953 0
-0.0886996 0.112303 0
-0.100527 0.1102 0
-0.112164 0.105304 0
-0.123417 0.0973744 0
-0.134089 0.0862888 0
-0.143996 0.072062 0
-0.152977 0.0548511 0
-0.160899 0.0349528 0
-0.167658 0.0127882 0
-0.173154 -0.0111178 0
-0.177334 -0.0362676 0
-0.180096 -0.0622722 0
-0.181119 -0.088654 0
-0.179796 -0.11476 0
-0.175215 -0.139524 0
-0.166216 -0.161177 0
-0.151594 -0.176977 0
-0.130498 -0.183106 0
-0.103036 -0.175015 0
-0.0711076 -0.148669 0
-0.0392189 -0.10359 0
-0.0143494 -0.0484971 0
-0.00233282 -0.00546364 0
-0.00126868 0.0294481 0
-0.00546017 0.0642975 0
-0.012265 0.0839326 0
-0.0205671 0.0957365 0
-0.0297356 0.104041 0
-0.0394619 0.110743 0
-0.0495903 0.116326 0
-0.0600139 0.120615 0
-0.0706267 0.123189 0
-0.0813071 0.123581 0
-0.0919162 0.121359 0
-0.102302 0.116169 0
-0.112308 0.107768 0
-0.121785 0.0960437 0
-0.130604 0.0810328 0
-0.13867 0.0629279 0
-0.145937 0.0420657 0
-0.152403 0.0188999 0
-0.158097 -0.00603951 0
-0.163063 -0.0321998 0
-0.167304 -0.0593374 0
-0.170621 -0.0872489 0
-0.172465 -0.115644 0
-0.171844 -0.143842 0
-0.167338 -0.170365 0
-0.157259 -0.19249 0
-0.140035 -0.205913 0
-0.114899 -0.204806 0
-0.0829042 -0.182801 0
-0.0481886 -0.136062 0
-0.018709 -0.0703741 0
-0.00325788 -0.0110543 0
-0.00100645 0.0317232 0
-0.00452613 0.0697335 0
-0.0104914 0.0912666 0
-0.0179178 0.104131 0
-0.0261538 0.113051 0
-0.0348454 0.120151 0
-0.0438086 0.12601 0
-0.0529296 0.130476 0
-0.0621123 0.133124 0
-0.0712572 0.133472 0
-0.0802567 0.131077 0
-0.088997 0.125578 0
-0.0973658 0.116735 0
-0.105262 0.10445 0
-0.112612 0.0887942 0
-0.119384 0.0700053 0
-0.125607 0.048479 0
-0.13138 0.0247246 0
-0.136852 -0.000698352 0
-0.142183 -0.0272431 0
-0.147509 -0.0547276 0
-0.152806 -0.0832446 0
-0.157663 -0.112948 0
-0.161128 -0.143694 0
-0.16163 -0.174517 0
-0.157059 -0.202987 0
-0.145115 -0.224583 0
-0.124018 -0.232369 0
-0.093694 -0.217557 0
-0.0574622 -0.172254 0
-0.0237352 -0.0973884 0
-0.00445705 -0.0187693 0
-0.00070705 0.0334367 0
-0.00343591 0.0742685 0
-0.00838048 0.0976414 0
-0.0147242 0.111526 0
-0.0218038 0.120971 0
-0.029218 0.128337 0
-0.0367523 0.134322 0
-0.0442874 0.13882 0
-0.0517419 0.141417 0
-0.0590458 0.141628 0
-0.0661311 0.139005 0
-0.0729314 0.13319 0
-0.079386 0.123946 0
-0.0854475 0.111197 0
-0.0910945 0.0950444 0
-0.0963484 0.0757808 0
-0.101293 0.0538719 0
-0.106092 0.0299033 0
-0.110987 0.00448935 0
-0.11625 -0.0218359 0
-0.122162 -0.0488969 0
-0.128895 -0.0770459 0
-0.136274 -0.106911 0
-0.14353 -0.139009 0
-0.149108 -0.173122 0
-0.150617 -0.207444 0
-0.145082 -0.237606 0
-0.129638 -0.255888 0
-0.102832 -0.251169 0
-0.0666909 -0.211015 0
-0.0294351 -0.129611 0
-0.006017 -0.0292433 0
-0.000395128 0.0345389 0
-0.00227029 0.0777704 0
-0.00607258 0.102886 0
-0.0111815 0.117734 0
-0.0169352 0.127597 0
-0.0228867 0.135077 0
-0.0287908 0.14102 0
-0.0345249 0.145391 0
-0.0400279 0.147803 0
-0.0452667 0.147784 0
-0.0502223 0.14489 0
-0.0548856 0.138768 0
-0.0592573 0.129194 0
-0.063352 0.116106 0
-0.0672046 0.0996354 0
-0.0708821 0.0801211 0
-0.0744995 0.0580938 0
-0.078242 0.034223 0
-0.0823818 0.00920371 0
-0.0872631 -0.0164054 0
-0.0932763 -0.0424024 0
-0.100782 -0.0693014 0
-0.109905 -0.0981541 0
-0.120222 -0.130192 0
-0.130422 -0.166161 0
-0.138062 -0.205256 0
-0.139643 -0.243748 0
-0.131222 -0.273612 0
-0.109764 -0.281709 0
-0.0755389 -0.25084 0
-0.0358138 -0.166766 0
-0.00802979 -0.0432901 0
-9.89668e-05 0.035033 0
-0.00112468 0.0801771 0
-0.00373689 0.106894 0
-0.00752451 0.122623 0
-0.0118433 0.132781 0
-0.0162072 0.140209 0
-0.0203432 0.145929 0
-0.0241292 0.150003 0
-0.0275294 0.152095 0
-0.0305546 0.151757 0
-0.0332428 0.148562 0
-0.0356505 0.142168 0
-0.0378495 0.132365 0
-0.0399262 0.119106 0
-0.0419812 0.102543 0
-0.0441317 0.0830416 0
-0.0465176 0.0611766 0
-0.0493154 0.0376806 0
-0.0527632 0.0133337 0
-0.0571889 -0.0112283 0
-0.0630059 -0.0357494 0
-0.0706904 -0.0607643 0
-0.0806631 -0.0875958 0
-0.0929727 -0.118123 0
-0.106816 -0.154186 0
-0.120031 -0.196376 0
-0.128878 -0.2422 0
-0.128458 -0.284001 0
-0.114041 -0.307194 0
-0.0836868 -0.289934 0
-0.0428589 -0.208225 0
-0.0105771 -0.061897 0
0.000148829 0.0349831 0
-0.000108752 0.0815103 0
-0.00156787 0.109632 0
-0.00402083 0.126125 0
-0.00685687 0.136433 0
-0.00956452 0.143628 0
-0.0118516 0.148933 0
-0.0136023 0.152536 0
-0.0148114 0.154171 0
-0.0155386 0.153433 0
-0.0158835 0.149919 0
-0.0159729 0.143308 0
-0.0159551 0.133406 0
-0.0159948 0.120181 0
-0.0162676 0.103796 0
-0.0169539 0.0846258 0
-0.0182327 0.0632572 0
-0.0202792 0.0404442 0
-0.0232737 0.0170124 0
-0.0274366 -0.00631847 0
-0.0330761 -0.0292027 0
-0.0406445 -0.0520581 0
-0.0507336 -0.07624 0
-0.0638685 -0.104035 0
-0.0799801 -0.138319 0
-0.097603 -0.181404 0
-0.113206 -0.232722 0
-0.121236 -0.285868 0
-0.115282 -0.325698 0
-0.0908015 -0.326265 0
-0.0505161 -0.253007 0
-0.0137193 -0.0861935 0
0.000313834 0.0345204 0
0.000650023 0.0818944 0
0.000207985 0.111149 0
-0.000968782 0.128238 0
-0.00232893 0.138516 0
-0.00335546 0.145278 0
-0.00375466 0.149968 0
-0.00342763 0.152924 0
-0.00240531 0.15397 0
-0.000799423 0.152755 0
0.00122711 0.148914 0
0.00347513 0.142154 0
0.00571889 0.132299 0
0.00771476 0.119332 0
0.00921007 0.103422 0
0.00995496 0.0849407 0
0.00971738 0.0644587 0
0.00829971 0.0427069 0
0.00555163 0.0204924 0
0.00136422 -0.00144818 0
-0.00438305 -0.0226862 0
-0.0119417 -0.0434477 0
-0.02184 -0.0648631 0
-0.0348884 -0.0892281 0
-0.0517888 -0.120114 0
-0.0721637 -0.161612 0
-0.0933093 -0.215766 0
-0.109571 -0.278533 0
-0.113093 -0.335466 0
-0.0964589 -0.357612 0
-0.0586423 -0.299763 0
-0.0174822 -0.117395 0
0.000373359 0.0338332 0
0.0010362 0.0815825 0
0.00134194 0.111598 0
0.0012964 0.129012 0
0.00137103 0.139028 0
0.00203354 0.145131 0
0.00355159 0.148997 0
0.00598955 0.15113 0
0.00926762 0.151463 0
0.0132144 0.149709 0
0.0175996 0.145549 0
0.0221523 0.138719 0
0.0265737 0.129068 0
0.0305469 0.116593 0
0.0337495 0.101463 0
0.0358699 0.0840345 0
0.0366285 0.0648438 0
0.0358022 0.0445657 0
0.0332488 0.0239351 0
0.0289223 0.00362302 0
0.0228539 -0.0159417 0
0.0150302 -0.0348098 0
0.00519142 -0.0537639 0
-0.0074081 -0.0746794 0
-0.0239336 -0.101237 0
-0.0452074 -0.138841 0
-0.0700347 -0.192564 0
-0.0935198 -0.261988 0
-0.106952 -0.335057 0
-0.100011 -0.381595 0
-0.0669128 -0.346695 0
-0.0218294 -0.156706 0
0.000285627 0.0331743 0
0.000907809 0.0809565 0
0.00158107 0.111245 0
0.00243449 0.128557 0
0.003865 0.137978 0
0.00622985 0.143154 0
0.00970728 0.145978 0
0.0142909 0.147127 0
0.0198364 0.146643 0
0.0261075 0.144312 0
0.0328083 0.13986 0
0.0396024 0.13306 0
0.046127 0.123781 0
0.0520048 0.112029 0
0.0568599 0.097969 0
0.0603367 0.0819311 0
0.0621254 0.0643999 0
0.0619893 0.045972 0
0.05979 0.0272816 0
0.0554982 0.00889477 0
0.0491744 -0.00882128 0
0.0409059 -0.025838 0
0.0306738 -0.0426648 0
0.0181798 -0.0606849 0
0.00249311 -0.0830188 0
-0.0180694 -0.115222 0
-0.0442787 -0.165146 0
-0.0731014 -0.237098 0
-0.0960709 -0.323545 0
-0.100394 -0.395725 0
-0.0746568 -0.3914 0
-0.0266024 -0.205138 0
-2.87139e-05 0.0329173 0
3.03648e-05 0.0805321 0
0.00057833 0.110448 0
0.00205244 0.127026 0
0.00475753 0.135373 0
0.00886027 0.139291 0
0.01437 0.140854 0
0.0211585 0.140879 0
0.0289939 0.13951 0
0.037571 0.136597 0
0.0465339 0.131912 0
0.0554925 0.125256 0
0.0640354 0.116518 0
0.0717434 0.105707 0
0.0782067 0.0929732 0
0.0830464 0.0786104 0
0.0859403 0.0630381 0
0.0866487 0.0467615 0
0.0850348 0.0303055 0
0.0810686 0.0141289 0
0.0748078 -0.00147093 0
0.0663587 -0.0164707 0
0.0557997 -0.0312411 0
0.0430532 -0.0468681 0
0.0276631 -0.0657588 0
0.00843418 -0.0926908 0
-0.0168421 -0.136192 0
-0.0482573 -0.205815 0
-0.0792842 -0.300832 0
-0.0958793 -0.39752 0
-0.0805936 -0.430628 0
-0.0314089 -0.26315 0
-0.000707136 0.0336532 0
-0.00197839 0.0810085 0
-0.00216863 0.109614 0
-0.000328694 0.124546 0
0.00364363 0.131175 0
0.00959165 0.133438 0
0.0172666 0.133522 0
0.026362 0.132327 0
0.0365356 0.130053 0
0.0474122 0.126599 0
0.0585874 0.121771 0
0.069634 0.115392 0
0.0801122 0.107361 0
0.0895821 0.0976856 0
0.0976216 0.0864916 0
0.103848 0.0740256 0
0.107943 0.0606343 0
0.109672 0.0467273 0
0.108904 0.0327216 0
0.105609 0.0189743 0
0.0998431 0.00571008 0
0.0917116 -0.00707112 0
0.0813138 -0.0196838 0
0.0686587 -0.0330238 0
0.0535084 -0.0490627 0
0.0351226 -0.0717722 0
0.0118763 -0.108588 0
-0.0188212 -0.171306 0
-0.0550049 -0.26813 0
-0.0838092 -0.384822 0
-0.0824368 -0.459984 0
-0.0354285 -0.329987 0
-0.00199257 0.0363529 0
-0.00570704 0.0832945 0
-0.0073185 0.109129 0
-0.00524598 0.121118 0
0.000167983 0.125217 0
0.00822272 0.125393 0
0.0182963 0.123818 0
0.0298636 0.121368 0
0.0424625 0.118239 0
0.0556575 0.114342 0
0.0690141 0.109497 0
0.082091 0.103542 0
0.0944433 0.0963803 0
0.105634 0.0880059 0
0.115251 0.0785149 0
0.122927 0.0680996 0
0.128363 0.0570302 0
0.131343 0.0456218 0
0.131749 0.0341889 0
0.129559 0.0229925 0
0.124834 0.0121823 0
0.117694 0.0017286 0
0.108259 -0.00865135 0
0.096556 -0.0196979 0
0.0823974 -0.0330797 0
0.0652195 -0.0521915 0
0.0437613 -0.0834643 0
0.0157393 -0.13771 0
-0.021258 -0.228545 0
-0.060375 -0.356485 0
-0.0763401 -0.473728 0
-0.0370882 -0.402504 0
-0.00433458 0.04268 0
-0.0120607 0.0884079 0
-0.0155716 0.109138 0
-0.0129831 0.116448 0
-0.00559557 0.117086 0
0.0050829 0.114792 0
0.0179549 0.111475 0
0.0322623 0.107837 0
0.0474461 0.103987 0
0.0630404 0.0998043 0
0.0786108 0.095107 0
0.0937309 0.089735 0
0.107979 0.0835874 0
0.120946 0.0766411 0
0.132254 0.0689551 0
0.141572 0.0606645 0
0.148639 0.0519626 0
0.153275 0.0430738 0
0.155388 0.0342177 0
0.154974 0.0255675 0
0.152103 0.0172032 0
0.146893 0.00905778 0
0.139489 0.000858169 0
0.129964 -0.00797928 0
0.118121 -0.018796 0
0.103372 -0.0345483 0
0.0845301 -0.0608077 0
0.0593325 -0.107147 0
0.0244915 -0.18727 0
-0.0205591 -0.313593 0
-0.0561987 -0.465015 0
-0.0335374 -0.473129 0
-0.00838294 0.0553976 0
-0.021904 0.0969375 0
-0.0267241 0.10894 0
-0.0222132 0.109548 0
-0.0115153 0.105901 0
0.00281782 0.100965 0
0.0192246 0.0960227 0
0.0367899 0.0914167 0
0.0549313 0.0870828 0
0.0732103 0.0828357 0
0.091239 0.0784764 0
0.108644 0.0738402 0
0.125061 0.0688182 0
0.140138 0.0633658 0
0.153557 0.0575031 0
0.165048 0.0513072 0
0.174403 0.0448975 0
0.181492 0.038415 0
0.18626 0.0319951 0
0.188727 0.025737 0
0.188964 0.0196677 0
0.18707 0.013697 0
0.183134 0.00755927 0
0.177224 0.000754386 0