# vtk DataFile Version 2.0
Lid-driven cavity
ASCII
DATASET STRUCTURED_POINTS
DIMENSIONS 32 32 1
ORIGIN 0.015625 0.015625 0
SPACING 0.03125 0.03125 1
POINT_DATA 1024
SCALARS pressure double 1
LOOKUP_TABLE default
13.6883
13.6559
13.6132
13.5768
13.5543
13.5481
13.5592
13.5885
13.6381
13.7102
13.8076
13.9321
14.0844
14.2631
14.4642
14.6805
14.902
15.1153
15.3054
15.4571
15.557
15.5968
15.575
15.4977
15.3777
15.2328
15.082
14.9423
14.8276
14.7489
14.7125
14.7159
13.7207
13.6867
13.6524
13.6256
13.6106
13.6092
13.6225
13.6519
13.6995
13.7676
13.8586
13.9742
14.1152
14.2805
14.4664
14.6665
14.8715
15.069
15.2448
15.3845
15.4757
15.5107
15.4887
15.4164
15.3063
15.1751
15.0408
14.9182
14.818
14.7484
14.7148
14.7193
13.7645
13.7172
13.6816
13.6585
13.6475
13.6484
13.6616
13.6885
13.731
13.7918
13.8736
13.9786
14.1081
14.2619
14.4372
14.6287
14.8267
15.0192
15.1919
15.3298
15.4197
15.4533
15.4295
15.3551
15.2444
15.1147
14.9838
14.8668
14.7726
14.7074
14.6755
14.6817
13.7972
13.7325
13.6912
13.6675
13.6569
13.6568
13.6665
13.6871
13.7206
13.77
13.8387
13.9299
14.0461
14.1883
14.3552
14.5427
14.7407
14.9367
15.1159
15.262
15.36
15.3996
15.3778
15.3012
15.1845
15.0479
14.9113
14.79
14.6936
14.6269
14.5929
14.5965
13.7993
13.7165
13.6675
13.6404
13.6268
13.6219
13.6238
13.6331
13.6523
13.6847
13.7348
13.8068
13.905
14.0322
14.1891
14.3735
14.5751
14.7811
14.9763
15.1426
15.2622
15.3213
15.3135
15.2426
15.123
14.9765
14.8266
14.6929
14.5852
14.5093
14.4675
14.4638
13.7519
13.6516
13.5942
13.5617
13.5418
13.5276
13.5164
13.5083
13.506
13.5135
13.5362
13.5801
13.6513
13.7549
13.8945
14.0706
14.2748
14.4944
14.7145
14.9155
15.076
15.177
15.2056
15.1601
15.0512
14.9005
14.7353
14.5805
14.4519
14.3573
14.3001
14.2841
13.6358
13.519
13.453
13.4131
13.3833
13.3548
13.3238
13.2902
13.2565
13.2275
13.2096
13.2106
13.239
13.303
13.4098
13.5639
13.762
13.9931
14.2446
14.4964
14.7233
14.8989
15.0006
15.016
14.9471
14.811
14.637
14.4571
14.2973
14.1724
14.0896
14.0554
13.4311
13.2989
13.2239
13.1743
13.1303
13.081
13.0217
12.9514
12.8727
12.7904
12.7122
12.6477
12.6084
12.6067
12.6544
12.762
12.9334
13.1642
13.4476
13.765
14.0879
14.3811
14.6085
14.7409
14.7634
14.6814
14.5204
14.3197
14.1196
13.9501
13.8308
13.7703
13.1173
12.9709
12.8861
12.8237
12.7598
12.6815
12.5824
12.4608
12.3182
12.1595
11.9931
11.8308
11.6877
11.5814
11.5307
11.5535
11.6635
11.8678
12.1724
12.5637
13.0118
13.4727
13.8935
14.2215
14.4151
14.4557
14.3549
14.1542
13.9122
13.6852
13.5122
13.4152
12.6745
12.5153
12.4191
12.3394
12.2482
12.1302
11.977
11.7849
11.5538
11.2882
10.9968
10.6937
10.3986
10.1356
9.93253
9.81761
9.81613
9.94913
10.2474
10.7076
11.3024
11.9809
12.6723
13.2946
13.769
14.0372
14.0803
13.929
13.6582
13.3615
13.1163
12.9691
12.0849
11.9143
11.8045
11.7017
11.574
11.4031
11.1778
10.8916
10.5423
10.1325
9.67119
9.17486
8.66816
8.18368
7.76032
7.44004
7.26313
7.2621
7.50465
8.00828
8.75408
9.68878
10.7258
11.7519
12.6416
13.2806
13.5963
13.5857
13.3274
12.9596
12.6227
12.4048
11.3348
11.1545
11.028
10.8951
10.7199
10.4808
10.1631
9.75633
9.25494
8.65919
7.9776
7.22889
6.44347
5.66358
4.94161
4.33617
3.90584
3.70078
3.81395
4.31039
5.18535
6.39038
7.82963
9.36176
10.8114
11.9941
12.7574
13.0311
12.8697
12.45
12.0005
11.6871
10.4167
10.2286
10.0819
9.91121
9.67696
9.35364
8.92219
8.3676
7.6797
6.85551
5.90243
4.84123
3.70844
2.55699
1.45464
0.479394
-0.288189
-0.775733
-0.879717
-0.465187
0.485594
1.93848
3.79937
5.90936
8.04854
9.95635
11.3772
12.1335
12.2084
11.7911
11.2153
10.7752
9.33116
9.13723
8.96721
8.75139
8.44703
8.02464
7.46018
6.73309
5.82785
4.73737
3.46724
2.03991
0.498022
-1.09425
-2.65261
-4.07768
-5.26381
-6.1114
-6.51797
-6.2795
-5.33758
-3.70296
-1.45404
1.25016
4.16175
6.95148
9.24846
10.7274
11.2386
10.9278
10.2289
9.6253
8.08788
7.8907
7.6949
7.42828
7.04535
6.51268
5.80091
4.8834
3.73861
2.35466
0.734712
-1.09764
-3.09401
-5.17905
-7.25171
-9.19057
-10.8636
-12.142
-12.9146
-12.9513
-12.1255
-10.4169
-7.87398
-4.63385
-0.944947
2.81912
6.17884
8.63356
9.83207
9.7905
9.00086
8.19043
6.70582
6.5084
6.28621
5.96617
5.5008
4.85297
3.98797
2.87285
1.47975
-0.208487
-2.19166
-4.44562
-6.91687
-9.51968
-12.137
-14.626
-16.8292
-18.5895
-19.7695
-20.1593
-19.564
-17.9178
-15.2292
-11.5916
-7.21939
-2.48978
2.04074
5.69325
7.85485
8.30206
7.49368
6.42862
5.21194
5.01778
4.77116
4.39969
3.8546
3.09548
2.08258
0.77672
-0.856326
-2.83916
-5.17493
-7.83961
-10.7755
-13.8878
-17.045
-20.0852
-22.8275
-25.0886
-26.7028
-27.4846
-27.2157
-25.7742
-23.1214
-19.2909
-14.4294
-8.8656
-3.17596
1.81455
5.19843
6.39529
5.68659
4.31911
3.63861
3.45164
3.18588
2.77082
2.15699
1.30116
0.158908
-1.31481
-3.16038
-5.40586
-8.05803
-11.0937
-14.4521
-18.0312
-21.6876
-25.2431
-28.4973
-31.245
-33.2961
-34.477
-34.5861
-33.4703
-31.0349
-27.2491
-22.1676
-16.0183
-9.32194
-2.97815
1.82323
4.04463
3.60207
1.89297
2.02012
1.84445
1.5686
1.12474
0.462739
-0.463366
-1.70235
-3.30473
-5.31674
-7.77172
-10.6803
-14.0209
-17.7313
-21.7043
-25.7877
-29.7911
-33.4989
-36.6893
-39.1544
-40.7174
-41.2115
-40.4917
-38.4206
-34.9041
-29.8993
-23.4944
-16.0735
-8.50585
-2.19427
1.31114
1.35015
-0.715767
0.388541
0.228012
-0.0447399
-0.49482
-1.17401
-2.13166
-3.42107
-5.09802
-7.21427
-9.80821
-12.8945
-16.4537
-20.424
-24.6956
-29.1112
-33.4726
-37.5539
-41.1219
-43.9568
-45.873
-46.7309
-46.4138
-44.7911
-41.7113
-37.0481
-30.7365
-22.9567
-14.4235
-6.62461
-1.60814
-0.813815
-3.2017
-1.23135
-1.37289
-1.62504
-2.05013
-2.70441
-3.6428
-4.92414
-6.60968
-8.75634
-11.4072
-14.5807
-18.2603
-22.3858
-26.848
-31.4883
-36.1054
-40.4689
-44.3385
-47.4869
-49.7211
-50.9092
-50.9641
-49.7918
-47.2337
-43.0946
-37.1742
-29.4119
-20.2475
-11.076
-4.34242
-2.42933
-5.01016
-2.82795
-2.94768
-3.15419
-3.513
-4.08852
-4.9454
-6.15043
-7.77091
-9.86848
-12.49
-15.6571
-19.3562
-23.5299
-28.0718
-32.8262
-37.5938
-42.1449
-46.2375
-49.6398
-52.1522
-53.6358
-54.0198
-53.245
-51.2016
-47.6612
-42.3228
-34.8875
-25.4235
-15.0251
-6.33851
-2.78371
-5.25782
-4.40216
-4.50138
-4.63261
-4.86954
-5.29807
-6.00041
-7.05483
-8.53571
-10.5092
-13.025
-16.1069
-19.7428
-23.8766
-28.4038
-33.1715
-37.9851
-42.6202
-46.8413
-50.4218
-53.1635
-54.9144
-55.5897
-55.1431
-53.5233
-50.5533
-45.857
-38.933
-29.4192
-17.8875
-6.89266
-0.889444
-2.65377
-5.97223
-6.05279
-6.07141
-6.11916
-6.31927
-6.78477
-7.61197
-8.8838
-10.6696
-13.0197
-15.957
-19.4681
-23.4965
-27.9382
-32.6428
-37.4203
-42.0532
-46.3146
-49.9869
-52.8795
-54.8407
-55.7718
-55.6061
-54.2958
-51.7526
-47.6353
-41.2578
-31.8059
-19.1061
-5.21817
4.5112
4.58924
-7.58342
-7.64374
-7.49372
-7.26408
-7.1389
-7.27768
-7.80162
-8.80275
-10.3509
-12.493
-15.2473
-18.5963
-22.4804
-26.7947
-31.3903
-36.0815
-40.6574
-44.8992
-48.5975
-51.5694
-53.6687
-54.7903
-54.8547
-53.7824
-51.4702
-47.6736
-41.7225
-32.279
-18.2013
-0.512575
14.9303
18.8819
-9.33181
-9.36001
-8.94562
-8.31337
-7.74602
-7.46346
-7.61501
-8.29853
-9.57864
-11.4932
-14.051
-17.2269
-20.9556
-25.1298
-29.6014
-34.1881
-38.6848
-42.8794
-46.5688
-49.5745
-51.7527
-52.9967
-53.2146
-52.3003
-50.0921
-46.3018
-40.2608
-30.5661
-14.6949
8.06473
32.1574
43.4808
-11.406
-11.3603
-10.5165
-9.2921
-8.13318
-7.33389
-7.05858
-7.3995
-8.40592
-10.0988
-12.4723
-15.4896
-19.078
-23.1263
-27.4862
-31.9783
-36.4026
-40.5522
-44.2279
-47.2519
-49.4769
-50.7887
-51.0895
-50.2352
-47.9986
-43.9569
-37.2774
-26.2207
-7.8043
21.6708
58.4379
82.8937
-14.194
-13.9235
-12.3303
-10.2316
-8.29549
-6.88801
-6.15518
-6.15693
-6.91154
-8.41388
-10.6381
-13.533
-17.0168
-20.9737
-25.2548
-29.6829
-34.0621
-38.1896
-41.8683
-44.9178
-47.1813
-48.5263
-48.836
-47.9549
-45.5464
-40.9944
-33.0968
-19.4688
4.05348
42.5441
97.0228
143.535
-18.5944
-17.5693
-14.5485
-11.1259
-8.20006
-6.11307
-4.92807
-4.62844
-5.18148
-6.54675
-8.67446
-11.4978
-14.9253
-18.8364
-23.081
-27.4839
-31.8526
-35.9871
-39.691
-42.7793
-45.0822
-46.4413
-46.695
-45.6477
-42.9302
-37.5671
-27.7594
-10.0867
21.5042
74.9145
153.448
234.337
-26.9107
-23.1504
-17.1945
-11.7521
-7.63539
-4.87399
-3.30326
-2.78908
-3.22662
-4.53337
-6.63456
-9.4482
-12.874
-16.7871
-21.0366
-25.449
-29.8343
-33.9953
-37.7353
-40.8639
-43.1971
-44.5473
-44.698
-43.3548
-40.059
-33.5322
-20.9102
2.78436
46.3453
122.277
239.615
365.202
-45.0643
-30.7772
-18.9523
-10.843
-5.57148
-2.37148
-0.693159
-0.210042
-0.732054
-2.139
-4.33873
-7.24113
-10.7426
-14.718
-19.0185
-23.4736
-27.8976
-32.096
-35.8728
-39.0328
-41.3779
-42.6896
-42.6897
-40.9615
-36.8007
-28.5596
-12.0865
19.5342
78.7983
186.577
373.238
632.622
-95.8875
-31.195
-10.2637
-2.09666
1.79536
3.71852
4.40673
4.13954
3.04374
1.19212
-1.35554
-4.5314
-8.24803
-12.3928
-16.8273
-21.3902
-25.9034
-30.1783
-34.0213
-37.2352
-39.6111
-40.9044
-40.78
-38.6959
-33.6513
-23.4355
-3.19605
35.4488
108.002
244.927
519.228
1134.51
VECTORS velocity double
6.57521e-05 -6.57522e-05 0
0.00015812 -2.66162e-05 0
0.000125651 5.90851e-05 0
-7.34896e-05 0.000140056 0
-0.000418306 0.000204761 0
-0.000879478 0.000256411 0
-0.00143584 0.000299953 0
-0.0020731 0.000337309 0
-0.00277726 0.000366851 0
-0.00352852 0.000384409 0
-0.00429743 0.000384495 0
-0.00504329 0.000361364 0
-0.00571458 0.000309925 0
-0.00625119 0.000226689 0
-0.00658872 0.000110841 0
-0.00666505 -3.45134e-05 0
-0.00642949 -0.000201042 0
-0.00585268 -0.000375768 0
-0.00493583 -0.000541087 0
-0.00371886 -0.000675876 0
-0.0022847 -0.000758288 0
-0.000756448 -0.000769964 0
0.000714702 -0.000701187 0
0.001972 -0.000556112 0
0.00288063 -0.000352518 0
0.00335435 -0.000121206 0
0.00337406 0.000101504 0
0.00298774 0.000284812 0
0.00229458 0.000408346 0
0.0014391 0.000447136 0
0.000627024 0.000364939 0
0.000131042 0.000131042 0
2.34837e-05 -0.000154988 0
-7.48606e-05 6.85956e-05 0
-0.000512315 0.000433796 0
-0.00132418 0.000776346 0
-0.00246789 0.001057 0
-0.00388707 0.00128453 0
-0.00553218 0.00147331 0
-0.00735795 0.00162698 0
-0.00931316 0.00173656 0
-0.0113316 0.00178437 0
-0.013327 0.0017489 0
-0.0151934 0.00160915 0
-0.0168083 0.00134839 0
-0.0180411 0.00095763 0
-0.0187629 0.000439182 0
-0.0188598 -0.000189584 0
-0.0182492 -0.000892152 0
-0.0168933 -0.00161732 0
-0.014811 -0.00229873 0
-0.0120877 -0.00285851 0
-0.00888129 -0.00321622 0
-0.00541939 -0.00330218 0
-0.00198545 -0.00307407 0
0.00110862 -0.00253459 0
0.00356864 -0.0017427 0
0.005173 -0.000809106 0
0.00581732 0.00012538 0
0.00554186 0.000922707 0
0.00452094 0.00148453 0
0.00303881 0.00170856 0
0.00148752 0.00146687 0
0.000375264 0.000637348 0
-0.000100348 -7.81239e-05 0
-0.000595789 0.000585516 0
-0.00167531 0.00143385 0
-0.00329305 0.00220589 0
-0.00536535 0.00284346 0
-0.00781194 0.00336384 0
-0.0105614 0.00378858 0
-0.0135408 0.0041169 0
-0.0166634 0.00432438 0
-0.0198202 0.00437181 0
-0.0228789 0.00421555 0
-0.0256866 0.00381659 0
-0.0280787 0.00314801 0
-0.0298892 0.00220124 0
-0.0309635 0.000991706 0
-0.0311729 -0.000435805 0
-0.0304271 -0.00200235 0
-0.0286852 -0.00360491 0
-0.0259657 -0.00511293 0
-0.0223592 -0.00637416 0
-0.0180366 -0.00722953 0
-0.0132521 -0.00753527 0
-0.00833555 -0.00719147 0
-0.00367192 -0.00617488 0
0.000336305 -0.00457066 0
0.00333274 -0.00258192 0
0.00508829 -0.000501679 0
0.00556287 0.00135064 0
0.00492291 0.00271748 0
0.00350845 0.00337222 0
0.00180605 0.0030569 0
0.000476508 0.00148912 0
-0.000268593 0.000290817 0
-0.00128673 0.00173015 0
-0.00317132 0.00325333 0
-0.00574239 0.00457523 0
-0.00885399 0.00565801 0
-0.0123983 0.00654023 0
-0.0162852 0.00724856 0
-0.0204194 0.00777048 0
-0.0246854 0.00805936 0
-0.0289425 0.00805077 0
-0.0330263 0.00767907 0
-0.0367564 0.0068909 0
-0.039946 0.0056554 0
-0.0424138 0.00397207 0
-0.0439953 0.00187679 0
-0.0445536 -0.000553272 0
-0.0439866 -0.00319762 0
-0.0422331 -0.00590511 0
-0.0392841 -0.00848113 0
-0.0352012 -0.0106954 0
-0.0301309 -0.0123012 0
-0.0243144 -0.0130645 0
-0.0180902 -0.0128029 0
-0.011883 -0.0114343 0
-0.00617408 -0.00902845 0
-0.00144678 -0.00584788 0
0.0019006 -0.00233865 0
0.00367284 0.000940791 0
0.00396396 0.00347617 0
0.00312567 0.00486628 0
0.00170633 0.00468457 0
0.000465846 0.00243147 0
-0.000467068 0.00102648 0
-0.00209211 0.00363767 0
-0.00489003 0.00602832 0
-0.00851371 0.00799498 0
-0.012743 0.00957913 0
-0.0174414 0.0108618 0
-0.0225034 0.0118759 0
-0.0278181 0.0125919 0
-0.0332513 0.0129371 0
-0.0386422 0.0128211 0
-0.0438087 0.0121591 0
-0.0485557 0.0108879 0
-0.0526849 0.00897717 0
-0.0560045 0.00643769 0
-0.0583378 0.00332605 0
-0.0595298 -0.000252298 0
-0.0594518 -0.00414354 0
-0.0580043 -0.0081603 0
-0.05513 -0.0120491 0
-0.0508397 -0.0155006 0
-0.0452334 -0.0181727 0
-0.0385181 -0.0197248 0
-0.0310195 -0.0198655 0
-0.0231835 -0.0184149 0
-0.0155599 -0.0153804 0
-0.00875445 -0.0110287 0
-0.00333898 -0.00592065 0
0.000276836 -0.000865281 0
0.0020071 0.00326087 0
0.00216085 0.00576611 0
0.00134435 0.00602057 0
0.000391494 0.00328881 0
-0.000688019 0.00218156 0
-0.00297564 0.00639524 0
-0.00674986 0.0098429 0
-0.0114796 0.0125338 0
-0.0168689 0.0146589 0
-0.0227556 0.0163672 0
-0.0290244 0.0177014 0
-0.0355557 0.0186124 0
-0.0422057 0.0189998 0
-0.0488045 0.0187481 0
-0.055161 0.0177552 0
-0.0610714 0.0159492 0
-0.0663268 0.0133004 0
-0.07072 0.00982738 0
-0.0740519 0.00560165 0
-0.0761365 0.000748629 0
-0.0768057 -0.0045532 0
-0.0759131 -0.0100908 0
-0.0733456 -0.0155604 0
-0.0690521 -0.0205731 0
-0.063073 -0.0246856 0
-0.0555635 -0.0274368 0
-0.0468152 -0.0284005 0
-0.0372725 -0.0272586 0
-0.0275337 -0.023899 0
-0.0183219 -0.0185273 0
-0.0104013 -0.0117581 0
-0.00442487 -0.00461999 0
-0.00074008 0.00160052 0
0.000805524 0.0057271 0
0.000841354 0.00684026 0
0.000291515 0.00397182 0
-0.000922912 0.0037925 0
-0.00390014 0.0100492 0
-0.00867007 0.0147331 0
-0.0145143 0.0182175 0
-0.021067 0.0209173 0
-0.0281467 0.0230754 0
-0.0356336 0.0247489 0
-0.0434062 0.0258687 0
-0.0513183 0.0263056 0
-0.0591966 0.0259193 0
-0.0668455 0.0245893 0
-0.0740525 0.0222325 0
-0.0805941 0.0188141 0
-0.0862406 0.0143535 0
-0.0907615 0.00892839 0
-0.0939318 0.00267676 0
-0.0955405 -0.00420344 0
-0.0953963 -0.0114773 0
-0.0933333 -0.0188045 0
-0.0892358 -0.02572 0
-0.0830752 -0.0316784 0
-0.0749377 -0.036091 0
-0.0650546 -0.0383776 0
-0.0538341 -0.0380447 0
-0.0418866 -0.0347992 0
-0.0300251 -0.0287005 0
-0.0192076 -0.0203232 0
-0.0103829 -0.010856 0
-0.00423034 -0.00200083 0
-0.000867343 0.00441986 0
0.000260596 0.00698373 0
0.000187722 0.00445106 0
-0.00116 0.00587541 0
-0.00482005 0.0146035 0
-0.0105589 0.0206875 0
-0.0174789 0.0250273 0
-0.0251547 0.0283359 0
-0.0333917 0.0309735 0
-0.0420705 0.0330164 0
-0.0510719 0.0343751 0
-0.0602514 0.0348908 0
-0.0694351 0.0343963 0
-0.0784229 0.032749 0
-0.0869922 0.0298489 0
-0.0949014 0.0256484 0
-0.101895 0.0201593 0
-0.10771 0.0134583 0
-0.112083 0.00569021 0
-0.114761 -0.00292964 0
-0.115519 -0.0121374 0
-0.114149 -0.0215779 0
-0.110473 -0.0307198 0
-0.104389 -0.0389231 0
-0.0958984 -0.0454747 0
-0.0851421 -0.0496334 0
-0.0724493 -0.0507022 0
-0.0583886 -0.0481498 0
-0.0438075 -0.0417926 0
-0.0298221 -0.0320339 0
-0.0176962 -0.0200958 0
-0.0085443 -0.00806556 0
-0.00290639 0.00148368 0
-0.000409346 0.00629493 0
8.23063e-05 0.00472109 0
-0.00138408 0.00841948 0
-0.00568042 0.0200158 0
-0.0123114 0.0276449 0
-0.0202183 0.032897 0
-0.0289266 0.0368502 0
-0.0382336 0.0400032 0
-0.0480227 0.0424547 0
-0.058179 0.0440945 0
-0.068561 0.0447328 0
-0.0789949 0.0441719 0
-0.0892757 0.0422421 0
-0.0991702 0.0388195 0
-0.10842 0.0338368 0
-0.116747 0.0272917 0
-0.123861 0.0192548 0
-0.12947 0.00987546 0
-0.133291 -0.000615121 0
-0.135071 -0.0119138 0
-0.134573 -0.0236702 0
-0.131571 -0.0353051 0
-0.125891 -0.0461024 0
-0.117436 -0.0552415 0
-0.106231 -0.061828 0
-0.0924794 -0.0649514 0
-0.0766432 -0.0637974 0
-0.0595246 -0.0578448 0
-0.0423217 -0.0471699 0
-0.0265783 -0.0328292 0
-0.0139115 -0.0171508 0
-0.00544956 -0.00353092 0
-0.00121544 0.00457836 0
-3.64144e-05 0.00476698 0
-0.00157749 0.0113811 0
-0.00641999 0.0261931 0
-0.0138141 0.0354927 0
-0.0225663 0.0417084 0
-0.0321614 0.0463422 0
-0.0423908 0.0500475 0
-0.0531405 0.0529492 0
-0.0642998 0.0549157 0
-0.07573 0.0557239 0
-0.0872577 0.0551423 0
-0.0986744 0.0529693 0
-0.10974 0.049052 0
-0.120184 0.0432985 0
-0.129716 0.0356891 0
-0.13803 0.0262862 0
-0.14482 0.0152425 0
-0.149786 0.0028054 0
-0.152657 -0.0106835 0
-0.153181 -0.0248748 0
-0.151108 -0.0391752 0
-0.146199 -0.0528218 0
-0.138259 -0.0649174 0
-0.127174 -0.0744419 0
-0.11298 -0.0802824 0
-0.0959624 -0.0813202 0
-0.0767839 -0.0766191 0
-0.0566133 -0.0657691 0
-0.037177 -0.0494097 0
-0.0205845 -0.0298296 0
-0.00871975 -0.0111789 0
-0.002275 0.00154742 0
-0.000193337 0.00453723 0
-0.0017219 0.0146804 0
-0.00697664 0.032991 0
-0.014954 0.0440663 0
-0.0243578 0.0512906 0
-0.0346385 0.0566359 0
-0.0455796 0.0609243 0
-0.0570678 0.0643103 0
-0.068995 0.066641 0
-0.081225 0.0676588 0
-0.0935857 0.0670957 0
-0.105869 0.0647156 0
-0.117832 0.0603342 0
-0.129206 0.053834 0
-0.139698 0.0451776 0
-0.149005 0.0344195 0
-0.156821 0.0217151 0
-0.162848 0.00732612 0
-0.166802 -0.00838009 0
-0.16844 -0.0250154 0
-0.16752 -0.0420278 0
-0.163754 -0.0586444 0
-0.156853 -0.0739359 0
-0.146557 -0.086804 0
-0.132701 -0.095971 0
-0.115327 -0.100023 0
-0.0948617 -0.0975608 0
-0.0723101 -0.0875497 0
-0.0494344 -0.069941 0
-0.0287365 -0.0465887 0
-0.0129378 -0.0220831 0
-0.00370574 -0.00322514 0
-0.000410757 0.00393313 0
-0.00180058 0.0182029 0
-0.0072944 0.0402171 0
-0.0156301 0.0531534 0
-0.0254454 0.0614226 0
-0.0361599 0.0674991 0
-0.0475446 0.0723869 0
-0.0594829 0.0762742 0
-0.0718672 0.0789886 0
-0.0845639 0.0802379 0
-0.097404 0.0797175 0
-0.110184 0.0771565 0
-0.122668 0.0723405 0
-0.134595 0.0651287 0
-0.145688 0.0554686 0
-0.155662 0.0434093 0
-0.164231 0.0291107 0
-0.17112 0.0128465 0
-0.176069 -0.00499828 0
-0.178856 -0.0239717 0
-0.17925 -0.0435978 0
-0.176953 -0.0631377 0
-0.171607 -0.0816894 0
-0.162809 -0.0981441 0
-0.150171 -0.111125 0
-0.133445 -0.118968 0
-0.112721 -0.119805 0
-0.0887034 -0.111875 0
-0.0630066 -0.0941879 0
-0.0383455 -0.0677008 0
-0.0182364 -0.0368789 0
-0.00561646 -0.0102814 0
-0.000722206 0.00280017 0
-0.00180082 0.0218043 0
-0.00733058 0.0476393 0
-0.015765 0.0625014 0
-0.0257161 0.0718409 0
-0.0365734 0.0786526 0
-0.0480893 0.0841341 0
-0.0601388 0.0885148 0
-0.0726128 0.0916064 0
-0.0853803 0.0930843 0
-0.0982784 0.0926093 0
-0.111113 0.0898787 0
-0.123663 0.084652 0
-0.135688 0.0767699 0
-0.146938 0.0661709 0
-0.157162 0.0529046 0
-0.166117 0.0371392 0
-0.173573 0.0191632 0
-0.179318 -0.000620618 0
-0.183168 -0.0217131 0
-0.18493 -0.0437002 0
-0.184335 -0.0659277 0
-0.180988 -0.0875926 0
-0.174364 -0.107663 0
-0.163852 -0.124756 0
-0.148876 -0.137039 0
-0.129112 -0.142221 0
-0.104822 -0.137767 0
-0.0772795 -0.121535 0
-0.0491746 -0.0931192 0
-0.0246494 -0.0560948 0
-0.00809221 -0.0202425 0
-0.00115158 0.000926383 0
-0.00171597 0.0253211 0
-0.00706195 0.0549982 0
-0.0153154 0.0718303 0
-0.0251057 0.0822534 0
-0.0357925 0.0897843 0
-0.0471021 0.0958278 0
-0.058896 0.100664 0
-0.0710618 0.104097 0
-0.0834721 0.105772 0
-0.0959732 0.105321 0
-0.108386 0.102414 0
-0.12051 0.0967908 0
-0.132135 0.0882812 0
-0.143049 0.0768232 0
-0.153048 0.0624757 0
-0.161949 0.0454235 0
-0.169588 0.0259745 0
-0.175824 0.00454966 0
-0.180529 -0.018329 0
-0.183582 -0.0422692 0
-0.184783 -0.066753 0
-0.183745 -0.0911522 0
-0.17986 -0.114612 0
-0.172315 -0.135864 0
-0.160194 -0.153029 0
-0.142702 -0.163488 0
-0.11954 -0.163953 0
-0.0914372 -0.150995 0
-0.0607896 -0.122413 0
-0.0320891 -0.0800269 0
-0.0111842 -0.0337726 0
-0.00172162 -0.00194682 0
-0.00154687 0.028584 0
-0.00648896 0.0620234 0
-0.0142786 0.0808481 0
-0.023608 0.0923553 0
-0.033808 0.100569 0
-0.0445712 0.107116 0
-0.0557408 0.11234 0
-0.0671999 0.116046 0
-0.0788265 0.11786 0
-0.0904797 0.117388 0
-0.102 0.11428 0
-0.113215 0.108264 0
-0.123948 0.0991665 0
-0.134032 0.0869356 0
-0.14332 0.0716507 0
-0.151696 0.0535251 0
-0.159079 0.0328957 0
-0.165417 0.0102026 0
-0.170661 -0.0140329 0
-0.174791 -0.039383 0
-0.177716 -0.065513 0
-0.179108 -0.0920382 0
-0.178332 -0.118386 0
-0.174426 -0.143541 0
-0.166158 -0.165741 0
-0.152235 -0.18219 0
-0.131701 -0.188947 0
-0.104556 -0.181247 0
-0.0726119 -0.154752 0
-0.0403541 -0.108645 0
-0.0149045 -0.0515085 0
-0.00245473 -0.00612317 0
-0.00130236 0.0314332 0
-0.00563746 0.0684514 0
-0.0126957 0.089268 0
-0.021279 0.101848 0
-0.0306924 0.11069 0
-0.0405885 0.117654 0
-0.050788 0.123171 0
-0.0611691 0.127056 0
-0.0716181 0.128925 0
-0.0820117 0.128369 0
-0.0922155 0.125023 0
-0.102089 0.118609 0
-0.111495 0.10896 0
-0.120311 0.0960422 0
-0.128446 0.079967 0
-0.135852 0.0609907 0
-0.142533 0.0394948 0
-0.148541 0.01595 0
-0.153949 -0.00912869 0
-0.158841 -0.0352662 0
-0.163242 -0.0623031 0
-0.166949 -0.0901494 0
-0.169385 -0.118614 0
-0.169519 -0.147085 0
-0.165872 -0.174113 0
-0.156673 -0.196941 0
-0.140247 -0.211157 0
-0.115706 -0.210721 0
-0.0839896 -0.188939 0
-0.0491633 -0.141543 0
-0.0192527 -0.073971 0
-0.00339263 -0.0119705 0
-0.000998895 0.0337344 0
-0.00455795 0.0740443 0
-0.0106505 0.0968259 0
-0.018234 0.110457 0
-0.0265951 0.119856 0
-0.0353417 0.127131 0
-0.0442683 0.13282 0
-0.0532496 0.136769 0
-0.0621837 0.138595 0
-0.0709713 0.13788 0
-0.0795101 0.134254 0
-0.0876979 0.127439 0
-0.0954404 0.117278 0
-0.102662 0.103762 0
-0.109322 0.0870419 0
-0.11543 0.0674297 0
-0.121063 0.0453704 0
-0.126369 0.0213885 0
-0.131544 -0.00398485 0
-0.136785 -0.0302772 0
-0.142246 -0.0574296 0
-0.147899 -0.0856633 0
-0.15332 -0.115243 0
-0.157533 -0.146109 0
-0.158925 -0.177344 0
-0.155323 -0.206511 0
-0.144331 -0.229005 0
-0.124049 -0.237696 0
-0.0942695 -0.223461 0
-0.0581946 -0.177922 0
-0.0242297 -0.101468 0
-0.00460019 -0.0199633 0
-0.000659325 0.0353927 0
-0.00332259 0.0786084 0
-0.00826503 0.103297 0
-0.0146417 0.117946 0
-0.0217324 0.127818 0
-0.0290985 0.135281 0
-0.0365066 0.141004 0
-0.0438286 0.144888 0
-0.0509805 0.146562 0
-0.057894 0.145614 0
-0.0645078 0.141673 0
-0.0707669 0.134467 0
-0.0766271 0.123853 0
-0.0820633 0.109845 0
-0.0870816 0.0926367 0
-0.0917369 0.0725983 0
-0.0961515 0.0502499 0
-0.10053 0.0261931 0
-0.105152 0.00100728 0
-0.110319 -0.0248607 0
-0.116323 -0.0513817 0
-0.123334 -0.0790466 0
-0.131177 -0.108596 0
-0.13908 -0.140639 0
-0.145476 -0.175026 0
-0.147934 -0.209973 0
-0.143406 -0.241064 0
-0.128912 -0.260412 0
-0.102858 -0.256579 0
-0.0671222 -0.216614 0
-0.0298437 -0.134019 0
-0.00616094 -0.0307245 0
-0.000311263 0.0363633 0
-0.00202113 0.0820109 0
-0.00569391 0.108509 0
-0.0107151 0.124131 0
-0.0163741 0.134383 0
-0.0221877 0.141896 0
-0.0278939 0.147503 0
-0.0333645 0.151181 0
-0.0385386 0.152595 0
-0.0433873 0.151344 0
-0.0478995 0.147069 0
-0.0520777 0.139508 0
-0.0559381 0.128532 0
-0.0595136 0.114177 0
-0.0628607 0.0966699 0
-0.0660703 0.0764301 0
-0.0692838 0.0540463 0
-0.0727123 0.0302035 0
-0.0766503 0.00555676 0
-0.0814563 -0.0194368 0
-0.0875228 -0.0447358 0
-0.0952082 -0.0709953 0
-0.104645 -0.0993686 0
-0.115431 -0.131177 0
-0.126278 -0.167246 0
-0.134738 -0.206833 0
-0.13727 -0.246201 0
-0.129834 -0.277204 0
-0.109258 -0.286418 0
-0.0756402 -0.256129 0
-0.0361049 -0.171318 0
-0.00816378 -0.0450492 0
1.37359e-05 0.0366608 0
-0.000757816 0.0841948 0
-0.00311866 0.112359 0
-0.0067032 0.128887 0
-0.01083 0.139412 0
-0.0149786 0.146829 0
-0.0188607 0.152159 0
-0.0223513 0.155487 0
-0.0254178 0.15653 0
-0.0280778 0.154917 0
-0.0303785 0.150309 0
-0.0323887 0.142457 0
-0.0341942 0.131249 0
-0.0358963 0.116738 0
-0.0376107 0.0991707 0
-0.0394692 0.0789973 0
-0.0416247 0.0568481 0
-0.0442628 0.0334682 0
-0.0476248 0.00959205 0
-0.0520344 -0.0142565 0
-0.0578953 -0.0379886 0
-0.065675 -0.0622773 0
-0.0758032 -0.088522 0
-0.0883665 -0.118673 0
-0.102616 -0.154654 0
-0.116431 -0.19715 0
-0.126069 -0.243714 0
-0.126568 -0.286627 0
-0.113071 -0.311068 0
-0.0834612 -0.294707 0
-0.04301 -0.212727 0
-0.0106893 -0.0639022 0
0.000275051 0.036372 0
0.000343087 0.0851871 0
-0.000746537 0.114817 0
-0.00288528 0.132153 0
-0.00543894 0.142828 0
-0.0078639 0.149987 0
-0.00985257 0.154872 0
-0.0112879 0.1577 0
-0.012171 0.158266 0
-0.012571 0.156241 0
-0.0125984 0.151313 0
-0.0123927 0.143257 0
-0.0121149 0.131977 0
-0.0119414 0.117539 0
-0.0120556 0.100198 0
-0.0126431 0.0804155 0
-0.0138843 0.0588266 0
-0.0159466 0.0361901 0
-0.0189948 0.0132804 0
-0.0232314 -0.00929865 0
-0.0289438 -0.0313731 0
-0.0365653 -0.0534916 0
-0.0466916 -0.0770532 0
-0.0598843 -0.104386 0
-0.0761467 -0.138429 0
-0.0940972 -0.181609 0
-0.110252 -0.233462 0
-0.119041 -0.287592 0
-0.113955 -0.328686 0
-0.0902815 -0.330372 0
-0.0505171 -0.257278 0
-0.013799 -0.0883905 0
0.000449982 0.035647 0
0.00115581 0.0851383 0
0.00117603 0.115936 0
0.000425407 0.133924 0
-0.000561767 0.144597 0
-0.00124331 0.151324 0
-0.00130518 0.155585 0
-0.000647041 0.157763 0
0.000691261 0.157748 0
0.0025851 0.155266 0
0.00485703 0.150044 0
0.00729489 0.141883 0
0.00966251 0.130706 0
0.011709 0.11659 0
0.0131787 0.0997919 0
0.0138262 0.080762 0
0.0134334 0.060114 0
0.0118251 0.0385733 0
0.00888248 0.016888 0
0.00453414 -0.00432143 0
-0.00131708 -0.0247867 0
-0.00891961 -0.044854 0
-0.018802 -0.0656822 0
-0.0317854 -0.089581 0
-0.048631 -0.120126 0
-0.0690672 -0.161526 0
-0.0904889 -0.215969 0
-0.107282 -0.279504 0
-0.111539 -0.337602 0
-0.0956988 -0.360968 0
-0.0584959 -0.303648 0
-0.0175222 -0.119712 0
0.000516504 0.0346805 0
0.0015836 0.0843318 0
0.00242157 0.115884 0
0.00288956 0.134258 0
0.00342288 0.144717 0
0.00450053 0.150809 0
0.00640164 0.154262 0
0.00918996 0.155641 0
0.0127753 0.154947 0
0.0169712 0.151977 0
0.0215326 0.1465 0
0.0261761 0.138346 0
0.0305949 0.127457 0
0.0344697 0.113918 0
0.0374832 0.0979808 0
0.0393393 0.0800696 0
0.0397854 0.0607532 0
0.0386343 0.0406934 0
0.0357846 0.0205603 0
0.0312269 0.000912386 0
0.0250088 -0.0179512 0
0.0171121 -0.0361904 0
0.00727805 -0.0546294 0
-0.00522454 -0.0751478 0
-0.021588 -0.10135 0
-0.0427263 -0.138727 0
-0.0675707 -0.192502 0
-0.0913296 -0.26242 0
-0.105305 -0.336453 0
-0.0990776 -0.384185 0
-0.0666318 -0.35008 0
-0.0218258 -0.15906 0
0.00043348 0.0337305 0
0.00148163 0.0831666 0
0.0027333 0.114959 0
0.00416789 0.13328 0
0.00613374 0.143196 0
0.00898311 0.148402 0
0.0128954 0.150854 0
0.0178579 0.151297 0
0.0237125 0.14985 0
0.0302064 0.146383 0
0.0370285 0.14071 0
0.0438319 0.132689 0
0.0502494 0.122277 0
0.0559079 0.109564 0
0.0604448 0.0947844 0
0.0635304 0.0783243 0
0.0648917 0.0606909 0
0.0643366 0.0424619 0
0.0617698 0.0242083 0
0.0571946 0.00639732 0
0.0506871 -0.0107104 0
0.0423266 -0.027174 0
0.0320746 -0.0435597 0
0.0196231 -0.0612635 0
0.00407646 -0.0833245 0
-0.0162661 -0.115272 0
-0.0423069 -0.165072 0
-0.0711622 -0.237235 0
-0.094454 -0.32437 0
-0.0993555 -0.397595 0
-0.0742598 -0.394212 0
-0.026554 -0.207439 0
0.00012263 0.0331744 0
0.000615263 0.0821819 0
0.00176049 0.113547 0
0.00386183 0.131156 0
0.00717041 0.140045 0
0.0118287 0.144046 0
0.0178335 0.145294 0
0.025042 0.144686 0
0.0332037 0.142445 0
0.041995 0.138503 0
0.0510454 0.132717 0
0.0599567 0.124967 0
0.0683177 0.115221 0
0.0757195 0.10356 0
0.0817741 0.0901965 0
0.0861358 0.075465 0
0.0885253 0.0597993 0
0.0887504 0.0436836 0
0.0867171 0.0275866 0
0.0824254 0.011886 0
0.075943 -0.00320918 0
0.0673694 -0.0177412 0
0.056764 -0.0321351 0
0.0440279 -0.0475004 0
0.0287045 -0.0662175 0
0.00964553 -0.0929772 0
-0.0153906 -0.136289 0
-0.046662 -0.205891 0
-0.0777944 -0.30129 0
-0.0947999 -0.398768 0
-0.0801011 -0.432834 0
-0.0313158 -0.265309 0
-0.000565338 0.0336171 0
-0.00141628 0.0820975 0
-0.0010014 0.112071 0
0.00149524 0.128034 0
0.00612392 0.13523 0
0.0127003 0.137626 0
0.0209409 0.137468 0
0.0305122 0.135733 0
0.0410474 0.132702 0
0.0521507 0.128352 0
0.0634039 0.122565 0
0.0743747 0.115237 0
0.0846282 0.106336 0
0.0937407 0.0959302 0
0.101318 0.0841947 0
0.107015 0.0714077 0
0.11056 0.0579231 0
0.111764 0.0441302 0
0.110538 0.0303996 0
0.106878 0.0170246 0
0.100851 0.00416159 0
0.0925568 -0.00824423 0
0.0820789 -0.0205488 0
0.0694034 -0.0336751 0
0.0542764 -0.0495925 0
0.0359643 -0.0722311 0
0.0128918 -0.108927 0
-0.0175917 -0.171499 0
-0.0537098 -0.268432 0
-0.0827449 -0.385585 0
-0.08187 -0.461589 0
-0.0352918 -0.331917 0
-0.001872 0.0360544 0
-0.00521296 0.0838521 0
-0.00624556 0.110935 0
-0.00349187 0.12392 0
0.00263383 0.128589 0
0.0113881 0.128936 0
0.0221073 0.127198 0
0.0342207 0.124318 0
0.0472345 0.120568 0
0.06069 0.115927 0
0.0741399 0.110286 0
0.0871406 0.103544 0
0.0992569 0.0956598 0
0.110073 0.0866786 0
0.119207 0.0767346 0
0.126334 0.0660431 0
0.1312 0.0548779 0
0.133634 0.0435364 0
0.133557 0.0322971 0
0.130971 0.0213725 0
0.125951 0.0108615 0
0.11861 0.000690179 0
0.109057 -0.00945207 0
0.0972944 -0.0203336 0
0.083117 -0.0336298 0
0.0659515 -0.0527161 0
0.0445472 -0.0839652 0
0.0166628 -0.138093 0
-0.0201902 -0.228867 0
-0.0593786 -0.356927 0
-0.0757234 -0.474778 0
-0.0369105 -0.404119 0
-0.00425351 0.0421799 0
-0.0116933 0.0885073 0
-0.0146892 0.110308 0
-0.0114185 0.118523 0
-0.00326416 0.119707 0
0.00819176 0.117608 0
0.0217906 0.114208 0
0.0367225 0.110263 0
0.0523879 0.105943 0
0.0682947 0.101189 0
0.0839964 0.0958731 0
0.0990671 0.0898856 0
0.113098 0.0831711 0
0.125704 0.075745 0
0.136542 0.0676956 0
0.145323 0.0591743 0
0.151828 0.0503762 0
0.155919 0.0415123 0
0.157542 0.0327758 0
0.156716 0.0243053 0
0.153521 0.0161444 0
0.148075 0.0081932 0
0.140515 0.000158577 0
0.130891 -0.008558 0
0.118981 -0.019318 0
0.104188 -0.0350693 0
0.0853254 -0.061345 0
0.0601471 -0.10765 0
0.0253601 -0.187669 0
-0.0196912 -0.313885 0
-0.0555681 -0.465599 0
-0.0333251 -0.474355 0
-0.00837152 0.054805 0
-0.0217492 0.0966998 0
-0.0261655 0.109528 0
-0.0210132 0.11088 0
-0.00953048 0.107713 0
0.0056355 0.102981 0
0.0228406 0.0980317 0
0.0411027 0.0932451 0
0.0597945 0.0886039 0
0.0784496 0.0839667 0
0.0966683 0.0791751 0
0.11408 0.0741018 0
0.130332 0.0686715 0
0.145102 0.0628682 0
0.158104 0.0567327 0
0.169106 0.0503543 0
0.177944 0.043854 0
0.184523 0.0373637 0
0.188823 0.031002 0
0.190883 0.0248452 0
0.190786 0.0188962 0
0.18863 0.0130429 0
0.184497 0.00700286 0
0.178446 0.000271651 0
0.170328 -0.00811997 0
0.159503 -0.0206485 0