# vtk DataFile Version 2.0
Lid-driven cavity
ASCII
DATASET STRUCTURED_POINTS
DIMENSIONS 32 32 1
ORIGIN 0.015625 0.015625 0
SPACING 0.03125 0.03125 1
POINT_DATA 1024
SCALARS pressure double 1
LOOKUP_TABLE default
0.295716
0.291869
0.293516
0.303114
0.321238
0.347792
0.382512
0.425117
0.475331
0.532859
0.597359
0.668417
0.745525
0.828059
0.915268
1.00626
1.09998
1.19527
1.29087
1.38538
1.47723
1.5648
1.64648
1.72071
1.78606
1.84134
1.88562
1.91834
1.93938
1.94933
1.9499
1.94495
0.299562
0.295662
0.29853
0.30907
0.32764
0.354264
0.388813
0.431097
0.480889
0.537916
0.601847
0.672273
0.748689
0.830479
0.916895
1.00705
1.0999
1.19428
1.28897
1.38258
1.47355
1.56027
1.64113
1.7146
1.77928
1.83401
1.87795
1.91064
1.93212
1.94308
1.94498
1.94
0.297611
0.292353
0.295262
0.306188
0.325078
0.351863
0.386437
0.428656
0.478331
0.535224
0.599027
0.669353
0.745716
0.827518
0.914027
1.00437
1.09751
1.19226
1.28743
1.38159
1.47315
1.56045
1.64185
1.71576
1.78077
1.83572
1.87976
1.91251
1.93404
1.94501
1.94653
1.93993
0.286614
0.28014
0.282748
0.293778
0.312888
0.339893
0.374665
0.417077
0.466971
0.524138
0.588305
0.659114
0.736111
0.818723
0.906246
0.997822
1.09242
1.18885
1.28587
1.38199
1.47554
1.56478
1.64797
1.72344
1.78969
1.8455
1.89005
1.92294
1.94433
1.95482
1.95545
1.94736
0.265078
0.257735
0.260039
0.271103
0.290426
0.317743
0.352902
0.395784
0.446255
0.50414
0.5692
0.641116
0.71947
0.803729
0.893216
0.987097
1.08435
1.18377
1.28402
1.3835
1.48044
1.57298
1.65921
1.73731
1.80565
1.86294
1.90832
1.94147
1.96259
1.97241
1.97206
1.96283
0.232239
0.224275
0.226363
0.237502
0.257108
0.284871
0.320629
0.364274
0.415697
0.474755
0.54125
0.614907
0.695356
0.782105
0.874519
0.97179
1.07291
1.17664
1.28151
1.38581
1.48762
1.58487
1.67543
1.75727
1.82857
1.88793
1.93447
1.96793
1.98869
1.99769
1.99632
1.98614
0.187589
0.179129
0.181086
0.192382
0.212381
0.240752
0.277333
0.322032
0.374769
0.43544
0.503893
0.579905
0.663161
0.753224
0.849506
0.951237
1.05742
1.16681
1.27776
1.38842
1.49666
1.60016
1.69649
1.7833
1.85852
1.92056
1.96853
2.00231
2.02254
2.03052
2.028
2.0169
0.130671
0.121748
0.123632
0.13517
0.155682
0.184824
0.22244
0.268461
0.322842
0.385522
0.456403
0.535325
0.622037
0.716173
0.81721
0.924428
1.03686
1.15325
1.27181
1.39048
1.5069
1.6184
1.72213
1.81534
1.89555
1.96096
2.01062
2.04464
2.06405
2.07068
2.06677
2.05463
0.0609832
0.0515794
0.0534214
0.0652723
0.0864037
0.116458
0.155291
0.202857
0.259151
0.324164
0.397858
0.480147
0.570862
0.669724
0.776298
0.889945
1.00976
1.13448
1.26222
1.3907
1.51723
1.63873
1.75182
1.85312
1.93966
2.00923
2.06085
2.0949
2.11305
2.11782
2.11212
2.09876
-0.0220474
-0.031983
-0.0301751
-0.0179626
0.00386926
0.0349448
0.0751267
0.124398
0.182795
0.250364
0.32714
0.413118
0.508232
0.612314
0.725048
0.845914
0.974101
1.10842
1.24694
1.38711
1.52592
1.65975
1.78452
1.89607
1.9906
2.06536
2.11922
2.153
2.16918
2.17135
2.16331
2.14843
-0.119083
-0.129619
-0.127857
-0.115256
-0.092674
-0.0605124
-0.0189054
0.0321553
0.0927465
0.162975
0.24295
0.332766
0.432473
0.542044
0.661322
0.789951
0.927287
1.07228
1.22308
1.37686
1.53027
1.6791
1.8184
1.9429
2.04766
2.12905
2.18562
2.21867
2.23192
2.23045
2.21927
2.20248
-0.230876
-0.242096
-0.240404
-0.22741
-0.204056
-0.170786
-0.127739
-0.0748877
-0.0121193
0.0607289
0.143846
0.237431
0.341667
0.456694
0.582554
0.719119
0.865986
1.02234
1.18663
1.35577
1.52615
1.69292
1.85012
1.99106
2.10918
2.19942
2.25961
2.29153
2.30058
2.29402
2.27857
2.25924
-0.358275
-0.370272
-0.368686
-0.355304
-0.33118
-0.296813
-0.252364
-0.197801
-0.132985
-0.0577071
0.028294
0.12532
0.233699
0.353756
0.485769
0.629895
0.786064
0.953819
1.13208
1.31783
1.5072
1.69487
1.8738
2.03563
2.17159
2.27436
2.34026
2.37116
2.37454
2.36085
2.33947
2.31651
-0.50223
-0.515108
-0.513666
-0.499901
-0.475012
-0.439578
-0.393801
-0.337668
-0.271036
-0.193671
-0.105258
-0.00540424
0.10635
0.230521
0.367641
0.518196
0.682521
0.860643
1.05204
1.2545
1.46388
1.67473
1.87926
2.06737
2.22755
2.34907
2.42526
2.45694
2.45356
2.43004
2.40006
2.37158
-0.663807
-0.677685
-0.676413
-0.662251
-0.636578
-0.60009
-0.553064
-0.495535
-0.427394
-0.348415
-0.258267
-0.156504
-0.0425637
0.0842289
0.224644
0.379494
0.549549
0.735386
0.937148
1.15409
1.3822
1.61659
1.84948
2.0696
2.26256
2.41295
2.50878
2.5471
2.53789
2.50148
2.45862
2.4212
-0.844218
-0.859228
-0.858129
-0.843503
-0.816963
-0.77937
-0.731121
-0.67235
-0.603028
-0.522993
-0.431956
-0.329483
-0.21498
-0.0876891
0.0533156
0.209095
0.380789
0.569507
0.776158
1.00121
1.24278
1.49689
1.7576
2.01412
2.25001
2.44436
2.57673
2.63561
2.62706
2.57594
2.51379
2.46145
-1.04487
-1.06116
-1.06019
-1.04493
-1.01731
-0.978429
-0.928857
-0.868893
-0.798656
-0.718125
-0.627136
-0.525363
-0.412303
-0.287255
-0.149313
0.00262367
0.169837
0.353761
0.555938
0.777968
1.02102
1.2838
1.56493
1.8575
2.1457
2.40368
2.59951
2.70598
2.7162
2.65392
2.56452
2.48727
-1.26746
-1.2852
-1.28421
-1.26799
-1.23887
-1.19827
-1.14704
-1.08571
-1.01464
-0.934047
-0.843997
-0.74441
-0.635038
-0.515463
-0.385092
-0.243159
-0.0887025
0.0795395
0.263352
0.465409
0.68945
0.939539
1.22242
1.5408
1.88499
2.22764
2.52395
2.7227
2.78946
2.73276
2.60961
2.49176
-1.51407
-1.53345
-1.53218
-1.51439
-1.48301
-1.43989
-1.38628
-1.32304
-1.25089
-1.17036
-1.0819
-0.985832
-0.882377
-0.771695
-0.653918
-0.529181
-0.397572
-0.258857
-0.111829
0.0468099
0.22364
0.428485
0.67845
0.996373
1.38718
1.8296
2.26892
2.62337
2.81206
2.80223
2.64759
2.46673
-1.78741
-1.80865
-1.80657
-1.78622
-1.75131
-1.70432
-1.64703
-1.58079
-1.50674
-1.4259
-1.3392
-1.24752
-1.15181
-1.05312
-0.95282
-0.852634
-0.754664
-0.660915
-0.57208
-0.485313
-0.391431
-0.273143
-0.106017
0.164552
0.571189
1.11151
1.73089
2.31718
2.72472
2.84101
2.67895
2.40828
-2.0911
-2.11443
-2.11068
-2.08615
-2.04567
-1.99267
-1.92961
-1.85848
-1.78098
-1.69868
-1.61311
-1.52589
-1.43885
-1.35428
-1.27522
-1.20572
-1.1509
-1.11643
-1.10663
-1.12097
-1.14904
-1.16623
-1.13416
-0.980031
-0.615792
-0.008787
0.805118
1.69631
2.44609
2.81766
2.71472
2.33329
-2.43014
-2.4558
-2.44891
-2.41763
-2.36848
-2.30617
-2.23418
-2.15524
-2.07174
-1.98586
-1.89979
-1.81592
-1.7371
-1.66705
-1.61079
-1.57521
-1.56928
-1.6035
-1.68766
-1.82588
-2.00915
-2.20715
-2.36458
-2.40023
-2.16203
-1.55702
-0.575941
0.664791
1.88853
2.69954
2.79332
2.30896
-2.81172
-2.8399
-2.82742
-2.78534
-2.72276
-2.64631
-2.56078
-2.46986
-2.37664
-2.28391
-2.19446
-2.11143
-2.03866
-1.98126
-1.94631
-1.94362
-1.98626
-2.09018
-2.27182
-2.54226
-2.89751
-3.30614
-3.69976
-3.97571
-3.9591
-3.45963
-2.39406
-0.817075
0.988488
2.46987
3.00187
2.49059
-3.24653
-3.27716
-3.25486
-3.19552
-3.11234
-3.01475
-2.9093
-2.80074
-2.69281
-2.58877
-2.49185
-2.40572
-2.33501
-2.28601
-2.26754
-2.29193
-2.37589
-2.54035
-2.80829
-3.19878
-3.71601
-4.33363
-4.97861
-5.52478
-5.79353
-5.51954
-4.50472
-2.68449
-0.253303
2.15009
3.49508
3.16136
-3.75104
-3.78333
-3.7437
-3.65656
-3.54188
-3.4132
-3.27925
-3.14578
-3.01693
-2.89608
-2.78657
-2.69223
-2.61813
-2.57129
-2.5617
-2.60344
-2.71567
-2.92273
-3.25239
-3.73049
-4.37036
-5.156
-6.02119
-6.8323
-7.39193
-7.43762
-6.63151
-4.73698
-1.73224
1.82492
4.50972
4.77416
-4.35209
-4.38301
-4.31188
-4.17927
-4.01645
-3.84273
-3.66913
-3.50193
-3.345
-3.20122
-3.07344
-2.96522
-2.88153
-2.8296
-2.81994
-2.86739
-2.99205
-3.21953
-3.5797
-4.1022
-4.80689
-5.68844
-6.69554
-7.70852
-8.52459
-8.88804
-8.41696
-6.64601
-3.21188
1.67243
6.38193
8.00747
-5.0963
-5.11598
-4.98496
-4.77626
-4.53973
-4.3018
-4.07474
-3.86383
-3.67132
-3.49856
-3.34715
-3.21971
-3.12062
-3.05682
-3.03869
-3.08102
-3.20367
-3.43213
-3.79622
-4.32605
-5.04347
-5.94866
-7.00232
-8.10613
-9.08573
-9.68229
-9.53354
-8.00653
-4.30593
2.01643
9.58948
13.8598
-6.0723
-6.04852
-5.79674
-5.45737
-5.10825
-4.7809
-4.48458
-4.21994
-3.98522
-3.77873
-3.59979
-3.44947
-3.33108
-3.25086
-3.21857
-3.24821
-3.35899
-3.5754
-3.92583
-4.43855
-5.13396
-6.01276
-7.04093
-8.13442
-9.14641
-9.84978
-9.85036
-8.43849
-4.4426
3.45005
14.8696
23.8182
-7.46878
-7.2899
-6.77899
-6.21147
-5.69384
-5.24779
-4.86755
-4.54208
-4.26186
-4.02028
-3.81334
-3.64003
-3.50214
-3.40475
-3.35685
-3.37181
-3.46797
-3.66844
-3.99945
-4.48619
-5.1455
-5.97497
-6.93967
-7.95864
-8.89371
-9.53695
-9.46572
-7.81721
-3.00263
7.10097
23.5187
40.0987
-9.73996
-8.9859
-7.89641
-6.94056
-6.19125
-5.60702
-5.14077
-4.75866
-4.43898
-4.16817
-3.93883
-3.74781
-3.59558
-3.48635
-3.42841
-3.43452
-3.52213
-3.71291
-4.03062
-4.49678
-5.12344
-5.90277
-6.79412
-7.70995
-8.50074
-8.93455
-8.5189
-6.08863
0.45271
14.2769
38.1415
65.6416
-14.0332
-11.0399
-8.74193
-7.24561
-6.25986
-5.57467
-5.06752
-4.671
-4.34845
-4.07988
-3.85495
-3.66931
-3.52302
-3.42023
-3.36922
-3.3826
-3.47731
-3.6737
-3.99302
-4.45287
-5.05983
-5.79908
-6.62092
-7.42353
-8.02829
-8.13591
-7.07086
-3.26219
6.10475
25.8161
62.9698
116.787
-25.2457
-11.3416
-7.09543
-5.60112
-4.91529
-4.50271
-4.20245
-3.95935
-3.75218
-3.57246
-3.41769
-3.28885
-3.18979
-3.12729
-3.11151
-3.15623
-3.27881
-3.49909
-3.83664
-4.30607
-4.90964
-5.62648
-6.39777
-7.10462
-7.52816
-7.2614
-5.40588
-0.107907
12.0622
37.8192
93.0489
221.177
VECTORS velocity double
-1.64186e-05 1.64186e-05 0
-0.00016109 0.000128253 0
-0.000500526 0.000211183 0
-0.000968106 0.000256397 0
-0.00150013 0.000275623 0
-0.00205613 0.000280377 0
-0.00261444 0.000277937 0
-0.00316421 0.000271833 0
-0.00369925 0.000263205 0
-0.00421438 0.000251931 0
-0.00470365 0.000237331 0
-0.00515952 0.000218547 0
-0.00557279 0.000194722 0
-0.00593264 0.000165123 0
-0.00622701 0.000129246 0
-0.0064432 8.69491e-05 0
-0.00656871 3.85613e-05 0
-0.00659211 -1.51613e-05 0
-0.00650318 -7.3774e-05 0
-0.00629411 -0.00013529 0
-0.00596186 -0.000196969 0
-0.00550929 -0.000255599 0
-0.00494606 -0.000307633 0
-0.00428908 -0.000349346 0
-0.00356273 -0.000376998 0
-0.00279881 -0.000386928 0
-0.00203635 -0.000375533 0
-0.0013216 -0.000339211 0
-0.000707722 -0.00027467 0
-0.000252248 -0.000180804 0
-5.64486e-06 -6.57991e-05 0
3.00771e-05 3.00769e-05 0
-0.000135635 0.000168472 0
-0.000629932 0.000615167 0
-0.00150447 0.00093824 0
-0.00262948 0.00112193 0
-0.0038929 0.00120553 0
-0.00521559 0.00122916 0
-0.00654802 0.0012199 0
-0.00786031 0.00119194 0
-0.00913278 0.0011506 0
-0.0103493 0.00109617 0
-0.0114934 0.00102652 0
-0.0125468 0.000938635 0
-0.0134884 0.000829447 0
-0.0142945 0.000696325 0
-0.0149396 0.00053755 0
-0.0153975 0.000352774 0
-0.0156427 0.000143421 0
-0.015652 -8.73189e-05 0
-0.0154068 -0.000335735 0
-0.0148956 -0.000593603 0
-0.0141163 -0.000850243 0
-0.0130781 -0.00109312 0
-0.0118031 -0.00130831 0
-0.0103276 -0.00148117 0
-0.00870223 -0.00159685 0
-0.00699255 -0.00164069 0
-0.00527847 -0.00159832 0
-0.00365378 -0.00145586 0
-0.00222372 -0.00120196 0
-0.00109702 -0.000835685 0
-0.000364521 -0.000390024 0
-5.30478e-05 7.10584e-06 0
-0.000239907 0.000544014 0
-0.00103059 0.00152461 0
-0.00232994 0.00220268 0
-0.00394178 0.00259434 0
-0.00572425 0.002779 0
-0.00757958 0.00283372 0
-0.00944393 0.00281212 0
-0.0112758 0.00274386 0
-0.0130458 0.00264111 0
-0.0147293 0.00250567 0
-0.0163022 0.00233407 0
-0.0177384 0.00212074 0
-0.0190094 0.00185984 0
-0.0200837 0.00154639 0
-0.0209284 0.00117731 0
-0.0215098 0.000752316 0
-0.0217955 0.000274773 0
-0.021757 -0.000247926 0
-0.0213728 -0.00080451 0
-0.0206317 -0.00137714 0
-0.0195343 -0.00194341 0
-0.0180956 -0.00247691 0
-0.0163468 -0.00294827 0
-0.0143371 -0.0033264 0
-0.0121343 -0.0035798 0
-0.00982417 -0.00367753 0
-0.00750991 -0.00358981 0
-0.00530974 -0.00328923 0
-0.00335272 -0.00275568 0
-0.00176947 -0.00199192 0
-0.000673245 -0.00106251 0
-0.000129591 -0.000175533 0
-0.000315195 0.00109912 0
-0.0013274 0.00277241 0
-0.00294768 0.00387451 0
-0.00491909 0.00450577 0
-0.00707371 0.00480466 0
-0.00930191 0.00489158 0
-0.0115325 0.00484925 0
-0.0137181 0.00472419 0
-0.0158238 0.00453643 0
-0.0178198 0.00428984 0
-0.019677 0.00397992 0
-0.0213644 0.0035986 0
-0.0228487 0.00313722 0
-0.0240938 0.00258848 0
-0.0250618 0.00194798 0
-0.0257146 0.00121579 0
-0.0260155 0.000397902 0
-0.0259325 -0.000492637 0
-0.0254421 -0.00143436 0
-0.0245324 -0.00239813 0
-0.0232047 -0.00334742 0
-0.0214774 -0.00423893 0
-0.0193883 -0.00502413 0
-0.016997 -0.00565155 0
-0.0143852 -0.00606931 0
-0.0116559 -0.00622738 0
-0.00893074 -0.00607939 0
-0.00634532 -0.00558524 0
-0.00404347 -0.00471855 0
-0.00216799 -0.00348778 0
-0.000846221 -0.00198464 0
-0.000169082 -0.000474206 0
-0.000366527 0.00178084 0
-0.00153559 0.00427195 0
-0.00338933 0.00584898 0
-0.00562315 0.00673652 0
-0.00804648 0.00715186 0
-0.0105402 0.00726629 0
-0.013029 0.00719399 0
-0.0154629 0.00699891 0
-0.0178045 0.00670905 0
-0.0200218 0.00633044 0
-0.0220828 0.00585751 0
-0.0239541 0.00527969 0
-0.0255991 0.00458539 0
-0.0269784 0.00376474 0
-0.0280505 0.00281187 0
-0.0287729 0.00172708 0
-0.0291046 0.000519156 0
-0.029009 -0.000792499 0
-0.0284581 -0.00217579 0
-0.0274352 -0.00358927 0
-0.025939 -0.00498015 0
-0.0239876 -0.00628489 0
-0.0216234 -0.00743152 0
-0.0189155 -0.00834333 0
-0.0159613 -0.00894353 0
-0.0128838 -0.00915999 0
-0.00982629 -0.00892946 0
-0.00694494 -0.00820193 0
-0.00439908 -0.00694957 0
-0.00234105 -0.00519027 0
-0.0009032 -0.00304176 0
-0.000177068 -0.000820356 0
-0.000401465 0.00254883 0
-0.00168073 0.00595229 0
-0.00370332 0.00804498 0
-0.0061301 0.00920112 0
-0.0087523 0.00973279 0
-0.0114431 0.00986985 0
-0.0141246 0.00976076 0
-0.0167462 0.00948757 0
-0.0192703 0.00908619 0
-0.0216643 0.00856458 0
-0.0238957 0.00791584 0
-0.0259296 0.00712647 0
-0.0277274 0.00618143 0
-0.029247 0.00506761 0
-0.0304427 0.0037768 0
-0.0312668 0.0023087 0
-0.0316717 0.000674117 0
-0.0316131 -0.00110167 0
-0.0310538 -0.00297689 0
-0.0299677 -0.00489709 0
-0.0283455 -0.00679073 0
-0.0262015 -0.00856968 0
-0.0235802 -0.0101323 0
-0.0205611 -0.0113694 0
-0.017261 -0.0121718 0
-0.0138299 -0.0124404 0
-0.0104425 -0.0120939 0
-0.00728456 -0.0110768 0
-0.00453653 -0.00936856 0
-0.00235946 -0.00700638 0
-0.000879703 -0.00414327 0
-0.00016363 -0.00116105 0
-0.000426391 0.00337669 0
-0.00178613 0.00776343 0
-0.00393523 0.0104055 0
-0.00650993 0.0118421 0
-0.00928762 0.0124917 0
-0.0121356 0.0126496 0
-0.0149746 0.0125015 0
-0.0177547 0.0121485 0
-0.0204396 0.0116343 0
-0.0229977 0.0109686 0
-0.0253972 0.0101426 0
-0.0276028 0.00913913 0
-0.0295747 0.00793853 0
-0.0312678 0.00652311 0
-0.0326314 0.00488065 0
-0.0336107 0.00300832 0
-0.0341484 0.000917049 0
-0.0341877 -0.00136386 0
-0.0336772 -0.00378455 0
-0.0325755 -0.00627722 0
-0.0308596 -0.00874874 0
-0.0285345 -0.0110807 0
-0.025644 -0.0131332 0
-0.0222785 -0.0147531 0
-0.0185791 -0.0157877 0
-0.0147333 -0.0161013 0
-0.0109615 -0.0155921 0
-0.00749312 -0.014205 0
-0.00454025 -0.0119413 0
-0.00227291 -0.008878 0
-0.000799123 -0.00522519 0
-0.000134824 -0.00145951 0
-0.000445855 0.00424893 0
-0.00186928 0.00967435 0
-0.00412034 0.0128948 0
-0.00681701 0.0146242 0
-0.00972624 0.0153965 0
-0.0127112 0.0155778 0
-0.0156925 0.0153937 0
-0.018622 0.0149658 0
-0.0214658 0.0143457 0
-0.0241947 0.0135443 0
-0.0267786 0.0125503 0
-0.029183 0.0113416 0
-0.0313674 0.00989244 0
-0.0332836 0.00817842 0
-0.0348752 0.00618059 0
-0.036078 0.00389048 0
-0.0368213 0.00131583 0
-0.0370315 -0.00151303 0
-0.036637 -0.00454042 0
-0.0355745 -0.00768554 0
-0.0337999 -0.0108309 0
-0.0313024 -0.0138211 0
-0.0281193 -0.0164664 0
-0.0243501 -0.0185546 0
-0.0201642 -0.0198715 0
-0.015798 -0.0202295 0
-0.0115355 -0.0194983 0
-0.00767236 -0.0176302 0
-0.00446942 -0.0146719 0
-0.00211019 -0.010774 0
-0.000671828 -0.00624133 0
-9.25817e-05 -0.00168691 0
-0.00046272 0.00515751 0
-0.0019416 0.0116681 0
-0.00428238 0.0154929 0
-0.00708817 0.0175285 0
-0.0101179 0.0184311 0
-0.013232 0.0186423 0
-0.0163522 0.0184307 0
-0.0194329 0.017939 0
-0.0224441 0.0172274 0
-0.0253603 0.0163077 0
-0.0281543 0.0151649 0
-0.0307938 0.013771 0
-0.0332384 0.012092 0
-0.0354374 0.0100939 0
-0.0373281 0.00774739 0
-0.0388355 0.00503385 0
-0.0398728 0.00195306 0
-0.0403448 -0.00146803 0
-0.040154 -0.00517077 0
-0.0392085 -0.00906318 0
-0.0374346 -0.0130017 0
-0.0347953 -0.0167871 0
-0.0313118 -0.020167 0
-0.0270845 -0.0228504 0
-0.0223095 -0.0245367 0
-0.0172797 -0.0249604 0
-0.0123643 -0.0239453 0
-0.00795676 -0.0214539 0
-0.00439837 -0.0176096 0
-0.00190239 -0.0126916 0
-0.000505776 -0.00715877 0
-3.75011e-05 -0.001817 0
-0.000478536 0.00609876 0
-0.00200958 0.0137367 0
-0.00443515 0.0181906 0
-0.00734503 0.0205465 0
-0.0104914 0.0215891 0
-0.0137332 0.0218402 0
-0.0169941 0.0216138 0
-0.0202325 0.0210751 0
-0.0234233 0.0202933 0
-0.0265461 0.0192807 0
-0.0295787 0.0180185 0
-0.0324926 0.0164708 0
-0.0352493 0.0145935 0
-0.0377971 0.0123392 0
-0.0400679 0.00966369 0
-0.0419757 0.00653282 0
-0.0434163 0.00293193 0
-0.0442694 -0.00112175 0
-0.0444073 -0.00556998 0
-0.0437031 -0.0103137 0
-0.0420439 -0.0151843 0
-0.0393529 -0.0199348 0
-0.0356173 -0.0242385 0
-0.0309194 -0.027704 0
-0.0254663 -0.0299114 0
-0.0196047 -0.030477 0
-0.0138072 -0.0291416 0
-0.00860754 -0.0258648 0
-0.00448403 -0.0208805 0
-0.00172256 -0.0146781 0
-0.000324043 -0.00796741 0
2.69127e-05 -0.00182758 0
-0.000493952 0.00707125 0
-0.00207613 0.0158775 0
-0.00458514 0.0209844 0
-0.00759778 0.0236752 0
-0.01086 0.024869 0
-0.0142299 0.0251722 0
-0.0176342 0.0249469 0
-0.0210362 0.0243826 0
-0.0244173 0.0235577 0
-0.0277642 0.0224859 0
-0.0310617 0.0211435 0
-0.0342879 0.019486 0
-0.0374093 0.0174564 0
-0.040376 0.0149907 0
-0.0431175 0.0120245 0
-0.0455391 0.00850149 0
-0.0475203 0.00438497 0
-0.0489162 -0.000325738 0
-0.0495663 -0.00557803 0
-0.0493044 -0.0112717 0
-0.047969 -0.0172209 0
-0.0454246 -0.0231337 0
-0.0415953 -0.0286045 0
-0.0365088 -0.0331223 0
-0.0303461 -0.036109 0
-0.0234837 -0.0370033 0
-0.0165021 -0.0353944 0
-0.0101235 -0.0311902 0
-0.00505186 -0.0247503 0
-0.00173788 -0.0168837 0
-0.00018728 -0.00871092 0
8.91829e-05 -0.00171149 0
-0.000509082 0.00807429 0
-0.002142 0.0180895 0
-0.00473425 0.0238736 0
-0.00784922 0.0269136 0
-0.0112265 0.02827 0
-0.0147239 0.0286385 0
-0.0182715 0.0284324 0
-0.0218391 0.0278669 0
-0.025416 0.0270314 0
-0.0289981 0.0259411 0
-0.0325806 0.0245682 0
-0.0361517 0.0228586 0
-0.0396872 0.0207406 0
-0.0431445 0.0181303 0
-0.0464563 0.0149381 0
-0.0495249 0.0110782 0
-0.0522194 0.00648388 0
-0.0543754 0.00112733 0
-0.0558017 -0.00495471 0
-0.0562906 -0.0116681 0
-0.055622 -0.0188285 0
-0.0535759 -0.0261166 0
-0.0499707 -0.0330561 0
-0.0447227 -0.0390052 0
-0.0379257 -0.0431858 0
-0.0299339 -0.0447807 0
-0.0214136 -0.0431189 0
-0.0133108 -0.037947 0
-0.00666663 -0.0297093 0
-0.00225879 -0.0196465 0
-0.000214949 -0.00954254 0
0.000125512 -0.00149679 0
-0.000523811 0.00910718 0
-0.00220697 0.0203727 0
-0.00488208 0.0268578 0
-0.00809825 0.0302606 0
-0.011588 0.0317901 0
-0.0152088 0.0322366 0
-0.0188947 0.0320678 0
-0.022623 0.0315274 0
-0.0263926 0.0307174 0
-0.0302114 0.0296561 0
-0.0340882 0.0283126 0
-0.0380265 0.0266237 0
-0.0420177 0.0245024 0
-0.0460343 0.0218425 0
-0.0500215 0.0185249 0
-0.0538898 0.0144284 0
-0.057509 0.00944734 0
-0.0607053 0.00351633 0
-0.0632635 -0.00335925 0
-0.0649325 -0.0111057 0
-0.065419 -0.0195729 0
-0.0643855 -0.0284517 0
-0.0614902 -0.0372216 0
-0.0564688 -0.0451092 0
-0.0492518 -0.0510959 0
-0.0400957 -0.0540184 0
-0.0296951 -0.052802 0
-0.0192121 -0.0468497 0
-0.0101218 -0.0365411 0
-0.0037518 -0.0235926 0
-0.000593245 -0.0107988 0
9.85186e-05 -0.00127276 0
-0.000538053 0.010169 0
-0.00227077 0.0227267 0
-0.00502796 0.0299361 0
-0.00834288 0.0337133 0
-0.0119399 0.0354241 0
-0.0156754 0.0359589 0
-0.0194878 0.035844 0
-0.0233627 0.0353544 0
-0.0273104 0.0346076 0
-0.0313534 0.0336276 0
-0.0355182 0.0323827 0
-0.0398294 0.030803 0
-0.0443023 0.0287873 0
-0.0489353 0.0262072 0
-0.0537 0.0229121 0
-0.0585312 0.0187407 0
-0.0633169 0.0135399 0
-0.0678885 0.00719184 0
-0.07201 -0.000355068 0
-0.0753768 -0.00907417 0
-0.0776024 -0.0188923 0
-0.0781965 -0.0295718 0
-0.0766033 -0.04059 0
-0.0723152 -0.0510503 0
-0.0650282 -0.0596589 0
-0.0548199 -0.0648199 0
-0.0423208 -0.0649003 0
-0.0288341 -0.0587211 0
-0.0162876 -0.0463065 0
-0.00678021 -0.0297046 0
-0.00155493 -0.0130706 0
-3.66998e-05 -0.00121094 0
-0.000551987 0.0112591 0
-0.00233406 0.0251515 0
-0.00517269 0.0331071 0
-0.00858287 0.0372674 0
-0.0122788 0.039163 0
-0.016115 0.0397917 0
-0.0200343 0.0397429 0
-0.0240307 0.0393268 0
-0.0281274 0.0386796 0
-0.0323641 0.0378351 0
-0.0367891 0.0367651 0
-0.0414545 0.0353971 0
-0.0464087 0.0336204 0
-0.0516894 0.0312877 0
-0.0573116 0.0282184 0
-0.0632546 0.0242085 0
-0.0694439 0.0190471 0
-0.0757292 0.0125416 0
-0.0818566 0.00454411 0
-0.0874419 -0.00502139 0
-0.0919699 -0.0161914 0
-0.0947747 -0.0288738 0
-0.0950611 -0.0425948 0
-0.0920462 -0.0563485 0
-0.0851487 -0.0685451 0
-0.0741941 -0.0770966 0
-0.0596326 -0.0796842 0
-0.0427596 -0.0742968 0
-0.0258477 -0.0601892 0
-0.0118806 -0.0392964 0
-0.00333828 -0.0172464 0
-0.000322003 -0.00156965 0
-0.000566296 0.0123774 0
-0.00239925 0.0276482 0
-0.00532026 0.03637 0
-0.0088222 0.0409166 0
-0.0126065 0.042994 0
-0.0165242 0.0437146 0
-0.0205218 0.0437367 0
-0.0246022 0.0434098 0
-0.028802 0.0428933 0
-0.0331797 0.0422358 0
-0.0378092 0.0414189 0
-0.0427752 0.0403747 0
-0.0481691 0.0389909 0
-0.0540806 0.0371093 0
-0.060586 0.0345245 0
-0.0677288 0.0309881 0
-0.0754891 0.0262172 0
-0.0837418 0.0199095 0
-0.0922039 0.0117657 0
-0.100388 0.00152644 0
-0.10761 -0.0109899 0
-0.113022 -0.0258576 0
-0.115627 -0.0427198 0
-0.114383 -0.0604828 0
-0.108424 -0.0772675 0
-0.0972672 -0.0904852 0
-0.0810547 -0.0970696 0
-0.0608644 -0.0939747 0
-0.0390698 -0.0792179 0
-0.01945 -0.0538545 0
-0.00615935 -0.0245212 0
-0.000789401 -0.00268105 0
-0.000582448 0.0135261 0
-0.00247153 0.0302215 0
-0.00547973 0.039726 0
-0.00907175 0.0446547 0
-0.0129325 0.0469009 0
-0.0169078 0.0477008 0
-0.0209467 0.0477871 0
-0.0250603 0.0475535 0
-0.0292987 0.0471878 0
-0.0337394 0.0467597 0
-0.0384829 0.0462679 0
-0.0436507 0.0456594 0
-0.0493821 0.0448315 0
-0.0558286 0.0436267 0
-0.0631392 0.0418232 0
-0.0714333 0.0391262 0
-0.0807538 0.0351599 0
-0.0910011 0.0294666 0
-0.101857 0.0215269 0
-0.11273 0.0108222 0
-0.12275 -0.00304476 0
-0.1309 -0.0202397 0
-0.136057 -0.0405758 0
-0.137001 -0.0629265 0
-0.132614 -0.0851709 0
-0.122071 -0.104281 0
-0.105079 -0.116478 0
-0.0822548 -0.117581 0
-0.0557182 -0.103943 0
-0.0297126 -0.0747546 0
-0.0102492 -0.0363751 0
-0.00148796 -0.00495841 0
-0.00060303 0.0147116 0
-0.00256006 0.0328822 0
-0.00566729 0.0431807 0
-0.00935212 0.0484767 0
-0.0132781 0.0508655 0
-0.0172836 0.0517171 0
-0.021319 0.051845 0
-0.0254023 0.0516924 0
-0.0295955 0.0514804 0
-0.0339937 0.051306 0
-0.0387224 0.0511939 0
-0.0439376 0.0511165 0
-0.049826 0.0509943 0
-0.0565995 0.0506839 0
-0.064479 0.049956 0
-0.0736574 0.0484659 0
-0.0842378 0.0457211 0
-0.0961469 0.0410617 0
-0.109046 0.0336875 0
-0.122276 0.0227639 0
-0.134863 0.00762055 0
-0.145618 -0.0119997 0
-0.153345 -0.0359323 0
-0.156802 -0.0631681 0
-0.154681 -0.0914382 0
-0.145823 -0.117414 0
-0.129403 -0.136757 0
-0.105328 -0.144202 0
-0.075038 -0.134149 0
-0.0426914 -0.102901 0
-0.0159052 -0.0544784 0
-0.00253762 -0.00898398 0
-0.000632202 0.0159468 0
-0.00267942 0.0356512 0
-0.00590885 0.0467484 0
-0.00969694 0.052382 0
-0.0136799 0.0548692 0
-0.0176864 0.0557255 0
-0.0216669 0.0558524 0
-0.025645 0.0557464 0
-0.0296918 0.0556665 0
-0.033916 0.0557423 0
-0.0384618 0.0560321 0
-0.0435119 0.0565435 0
-0.0492885 0.0572323 0
-0.0560496 0.0579807 0
-0.0640703 0.0585593 0
-0.0735999 0.0585708 0
-0.0847919 0.0573885 0
-0.0976103 0.0541218 0
-0.11174 0.0476566 0
-0.126532 0.036816 0
-0.141012 0.0206355 0
-0.153959 -0.00131165 0
-0.164131 -0.0287221 0
-0.170301 -0.0607517 0
-0.171129 -0.0951477 0
-0.165194 -0.128497 0
-0.151102 -0.156187 0
-0.127837 -0.172112 0
-0.0957094 -0.168656 0
-0.0580866 -0.138364 0
-0.0234687 -0.0804198 0
-0.0041786 -0.0157002 0
-0.000676332 0.0172554 0
-0.00285172 0.0385653 0
-0.00624326 0.0504553 0
-0.0101566 0.0563765 0
-0.0141936 0.0588945 0
-0.0181719 0.0596849 0
-0.0220417 0.0597433 0
-0.0258309 0.0596228 0
-0.0296166 0.0596226 0
-0.0335144 0.0599082 0
-0.0376775 0.0605751 0
-0.0422996 0.0616725 0
-0.0476176 0.0631979 0
-0.0539081 0.0650667 0
-0.0614683 0.0670542 0
-0.070576 0.0687133 0
-0.0814234 0.0692854 0
-0.094034 0.0676541 0
-0.108183 0.062403 0
-0.123344 0.0520221 0
-0.138678 0.0352434 0
-0.153078 0.0114285 0
-0.165269 -0.0190999 0
-0.174107 -0.0553662 0
-0.178416 -0.0953966 0
-0.176638 -0.13596 0
-0.16686 -0.172594 0
-0.147004 -0.198826 0
-0.115824 -0.205249 0
-0.0751138 -0.180103 0
-0.0331722 -0.11524 0
-0.00673185 -0.0266106 0
-0.000745002 0.0186767 0
-0.00310953 0.0416838 0
-0.00672668 0.0543454 0
-0.010803 0.0604761 0
-0.0148984 0.0629274 0
-0.0188203 0.0635523 0
-0.0225208 0.0634462 0
-0.026032 0.0632202 0
-0.0294339 0.0632127 0
-0.0328419 0.0636239 0
-0.0364053 0.0645859 0
-0.0403097 0.0661882 0
-0.0447796 0.0684701 0
-0.050075 0.0713804 0
-0.0564777 0.0747033 0
-0.0642596 0.0779538 0
-0.0736358 0.0802684 0
-0.0847047 0.0803506 0
-0.097388 0.0765387 0
-0.111379 0.0670385 0
-0.126111 0.0502931 0
-0.140745 0.0254131 0
-0.154208 -0.00743123 0
-0.165457 -0.0469476 0
-0.173483 -0.09148 0
-0.176866 -0.138272 0
-0.173351 -0.183575 0
-0.159775 -0.221276 0
-0.132993 -0.240761 0
-0.0924406 -0.225854 0
-0.0448998 -0.158971 0
-0.0104386 -0.0437811 0
-0.000852685 0.0202744 0
-0.00350072 0.0450987 0
-0.00743886 0.0584858 0
-0.0117349 0.064708 0
-0.0159005 0.0669565 0
-0.019738 0.0672826 0
-0.0232077 0.066886 0
-0.0263489 0.0664329 0
-0.0292432 0.0662962 0
-0.0319994 0.0667046 0
-0.0347503 0.0678195 0
-0.0376544 0.0697631 0
-0.0408975 0.0726081 0
-0.0446911 0.0763314 0
-0.0492652 0.080729 0
-0.0548538 0.0852986 0
-0.061673 0.0891191 0
-0.0698937 0.0907897 0
-0.0796088 0.088498 0
-0.0907935 0.0802553 0
-0.103257 0.064271 0
-0.116584 0.039397 0
-0.130107 0.00556992 0
-0.142974 -0.0358324 0
-0.154436 -0.0831069 0
-0.163469 -0.134229 0
-0.167766 -0.186836 0
-0.163215 -0.236143 0
-0.14459 -0.2713 0
-0.108265 -0.272193 0
-0.0580355 -0.210403 0
-0.0153131 -0.0695329 0
-0.00102176 0.0221488 0
-0.00409632 0.0489469 0
-0.00849246 0.0629719 0
-0.013085 0.0691105 0
-0.0173359 0.0709706 0
-0.0210561 0.0708264 0
-0.024227 0.0699828 0
-0.0269034 0.0691539 0
-0.0291703 0.0687365 0
-0.0311258 0.068976 0
-0.0328773 0.0700505 0
-0.0345418 0.0721007 0
-0.0362473 0.0752192 0
-0.0381348 0.0794014 0
-0.0403588 0.0844572 0
-0.0430906 0.0898907 0
-0.0465227 0.0947782 0
-0.0508735 0.0977021 0
-0.0563837 0.096811 0
-0.0632997 0.090043 0
-0.0718367 0.0754832 0
-0.0821139 0.0517898 0
-0.0940503 0.0186359 0
-0.107213 -0.0228682 0
-0.121231 -0.0705917 0
-0.135646 -0.123297 0
-0.148473 -0.180644 0
-0.155017 -0.240342 0
-0.148077 -0.292665 0
-0.12048 -0.314751 0
-0.0715008 -0.267052 0
-0.0211305 -0.105977 0
-0.00128821 0.0244588 0
-0.00500443 0.0534277 0
-0.0100473 0.0679302 0
-0.0150281 0.0737255 0
-0.0193698 0.074948 0
-0.0229211 0.0741204 0
-0.0257084 0.072647 0
-0.0278166 0.0712743 0
-0.0293401 0.0704064 0
-0.0303665 0.0702881 0
-0.0309733 0.0710967 0
-0.0312286 0.0729743 0
-0.0311952 0.0760177 0
-0.0309353 0.0802304 0
-0.0305208 0.0854377 0
-0.0300509 0.0911721 0
-0.0296777 0.0965556 0
-0.0296344 0.100232 0
-0.0302544 0.100411 0
-0.0319774 0.0950818 0
-0.0353414 0.0823454 0
-0.0409493 0.0608129 0
-0.0494008 0.0300008 0
-0.0611557 -0.00931541 0
-0.0763524 -0.0549298 0
-0.094952 -0.105944 0
-0.115712 -0.16441 0
-0.134036 -0.231708 0
-0.141332 -0.300942 0
-0.126828 -0.348577 0
-0.0838477 -0.325185 0
-0.0274769 -0.154584 0
-0.00171268 0.0274597 0
-0.00639463 0.0588249 0
-0.0123309 0.0735121 0
-0.0177859 0.0785793 0
-0.0221843 0.0788343 0
-0.0254674 0.0770684 0
-0.0277459 0.0747648 0
-0.0291568 0.0726756 0
-0.0298147 0.0711866 0
-0.0298004 0.07052 0
-0.0291615 0.0708325 0
-0.0279177 0.07225 0
-0.0260679 0.0748589 0
-0.0236015 0.0786628 0
-0.0205159 0.0835052 0
-0.0168462 0.088965 0
-0.0127029 0.0942462 0
-0.008316 0.0981113 0
-0.004061 0.098897 0
-0.000486852 0.0947449 0
0.00165812 0.0839013 0
0.00142985 0.0650931 0
-0.00231733 0.0379193 0
-0.0109089 0.00311252 0
-0.0253055 -0.0377643 0
-0.0458815 -0.0839341 0
-0.072202 -0.13934 0
-0.100779 -0.209876 0
-0.122907 -0.29335 0
-0.124939 -0.36864 0
-0.0932148 -0.379826 0
-0.033734 -0.215795 0
-0.00240226 0.0315746 0
-0.00853983 0.0655295 0
-0.0156615 0.0798655 0
-0.0216139 0.0836334 0
-0.0259294 0.0824942 0
-0.0287385 0.0795006 0
-0.0302945 0.076167 0
-0.0308156 0.0732054 0
-0.0304493 0.0709485 0
-0.0292752 0.0695696 0
-0.0273153 0.0691841 0
-0.0245459 0.0698853 0
-0.0209108 0.0717388 0
-0.0163387 0.0747444 0
-0.0107692 0.0787685 0
-0.0041893 0.0834521 0
0.00332847 0.0880982 0
0.0115741 0.0916267 0
0.0201236 0.0925772 0
0.0282964 0.0893177 0
0.0351538 0.0803261 0
0.0395129 0.0645376 0
0.0400098 0.041725 0
0.0352095 0.0126986 0
0.0236399 -0.0213842 0
0.00433207 -0.0604304 0
-0.0232134 -0.108978 0
-0.0576283 -0.177246 0
-0.09215 -0.269331 0
-0.112189 -0.370588 0
-0.0970439 -0.424746 0
-0.0389351 -0.288464 0
-0.00355173 0.0375286 0
-0.0118779 0.0740393 0
-0.0204438 0.0870433 0
-0.0267109 0.0886752 0
-0.0305569 0.0856139 0
-0.0324607 0.0810939 0
-0.0328938 0.0765628 0
-0.0321851 0.0726219 0
-0.0305255 0.0695062 0
-0.0279989 0.0673112 0
-0.0246077 0.0660913 0
-0.0202932 0.0658942 0
-0.0149553 0.0667569 0
-0.00847531 0.0686742 0
-0.000742431 0.0715363 0
0.00831 0.0750519 0
0.0186388 0.0786518 0
0.0300197 0.0814465 0
0.0419811 0.0822465 0
0.0537492 0.0797074 0
0.0642402 0.0725879 0
0.0721045 0.0600525 0
0.0758404 0.0419772 0
0.0739997 0.0190874 0
0.0653797 -0.00758336 0
0.0492014 -0.0387451 0
0.0250456 -0.0789616 0
-0.00829796 -0.139504 0
-0.0490995 -0.231751 0
-0.0853909 -0.351839 0
-0.0914974 -0.452534 0
-0.0414418 -0.368841 0
-0.00550851 0.0465889 0
-0.0170472 0.0848439 0
-0.026993 0.0947503 0
-0.0328303 0.0930726 0
-0.0352663 0.0874985 0
-0.0353593 0.0812061 0
-0.0338741 0.0753986 0
-0.0312636 0.0704668 0
-0.0277608 0.0664989 0
-0.0234547 0.0634858 0
-0.0183342 0.0614049 0
-0.0123167 0.0602487 0
-0.00527174 0.0600196 0
0.00295939 0.0607004 0
0.0125323 0.0622043 0