# vtk DataFile Version 2.0
Lid-driven cavity
ASCII
DATASET STRUCTURED_POINTS
DIMENSIONS 32 32 1
ORIGIN 0.015625 0.015625 0
SPACING 0.03125 0.03125 1
POINT_DATA 1024
SCALARS pressure double 1
LOOKUP_TABLE default
15.5829
15.5478
15.4989
15.4546
15.4233
15.408
15.41
15.4307
15.4725
15.5385
15.6317
15.7548
15.9089
16.0926
16.3015
16.5278
16.7598
16.9824
17.1782
17.3295
17.4213
17.4441
17.3968
17.287
17.1305
16.9485
16.7637
16.5955
16.4598
16.3685
16.3282
16.3344
15.618
15.5811
15.5414
15.5078
15.4852
15.4756
15.4806
15.5019
15.542
15.6037
15.6899
15.8031
15.9443
16.1125
16.3039
16.5115
16.7245
16.9288
17.1082
17.2459
17.3278
17.3453
17.298
17.1945
17.05
16.8845
16.7192
16.571
16.452
16.371
16.3332
16.3406
15.6682
15.6165
15.5753
15.5458
15.5277
15.5209
15.5261
15.5446
15.5791
15.6325
15.7081
15.8088
15.9365
16.0911
16.27
16.4672
16.672
16.8704
17.0459
17.1814
17.2618
17.2778
17.2284
17.1226
16.9776
16.8141
16.6531
16.512
16.4003
16.3245
16.289
16.2988
15.7093
15.6379
15.5901
15.5598
15.5421
15.5341
15.5352
15.5464
15.5701
15.61
15.6699
15.754
15.8653
16.0055
16.1738
16.3655
16.5695
16.7713
16.9541
17.0989
17.1887
17.2117
17.165
17.0568
16.9051
16.734
16.567
16.4213
16.3077
16.2306
16.1931
16.2001
15.7196
15.6274
15.5705
15.5361
15.5147
15.5008
15.4924
15.4899
15.4962
15.5152
15.5521
15.6124
15.7012
15.8223
15.9771
16.1634
16.3701
16.5825
16.7832
16.9513
17.0666
17.113
17.0835
16.9832
16.8292
16.6474
16.4656
16.3062
16.18
16.0927
16.0463
16.0447
15.6775
15.5648
15.4981
15.4571
15.4279
15.4025
15.3777
15.3536
15.3331
15.321
15.3237
15.3486
15.4031
15.4939
15.6256
15.7994
16.0068
16.2332
16.4619
16.6704
16.8342
16.931
16.9464
16.8782
16.7391
16.5546
16.3565
16.1734
16.0234
15.9147
15.8503
15.8341
15.5609
15.4286
15.3515
15.3014
15.2597
15.2163
15.1665
15.1103
15.0504
14.9924
14.9441
14.9149
14.9153
14.9557
15.045
15.1893
15.3859
15.6231
15.8871
16.155
16.3976
16.5841
16.6883
16.6955
16.6075
16.4441
16.2387
16.0282
15.8427
15.6987
15.6044
15.5665
15.3459
15.1952
15.1072
15.0449
14.9852
14.9154
14.8298
14.7273
14.6106
14.4857
14.3617
14.2505
14.1663
14.1243
14.1395
14.2246
14.3854
14.619
14.9186
15.263
15.6192
15.9463
16.202
16.3516
16.3769
16.2827
16.0975
15.8661
15.6353
15.4397
15.3027
15.2338
15.008
14.8404
14.7403
14.6617
14.5767
14.4702
14.3345
14.1673
13.9704
13.7499
13.5161
13.2837
13.0714
12.9009
12.7952
12.7761
12.8605
13.0593
13.3817
13.812
14.3158
14.8418
15.3281
15.7126
15.9453
16.0024
15.895
15.6693
15.3927
15.1315
14.9321
14.8205
14.5234
14.3404
14.2263
14.1258
14.0064
13.8498
13.6459
13.3904
13.0835
12.7306
12.343
11.9384
11.5411
11.1809
10.8915
10.707
10.6576
10.7699
11.0832
11.5935
12.2691
13.0509
13.8563
14.5895
15.1571
15.4886
15.5583
15.3984
15.094
14.7546
14.4722
14.3025
13.8705
13.6741
13.543
13.4136
13.2484
13.0256
12.732
12.36
11.9074
11.378
10.7838
10.1457
9.49438
8.86991
8.3193
7.89265
7.6374
7.59207
7.84041
8.40155
9.25312
10.3333
11.5417
12.747
13.8025
14.5731
14.9698
14.984
14.7028
14.286
13.8995
13.6487
13.0332
12.8252
12.6735
12.5068
12.2827
11.9757
11.5682
11.0485
10.4106
9.65629
8.79736
7.8581
6.87659
5.90453
5.00493
4.2472
3.69969
3.41999
3.52128
4.07617
5.07778
6.46966
8.14147
9.93072
11.6349
13.0391
13.9626
14.3174
14.1597
13.6911
13.1787
12.8191
12.0026
11.7853
11.6091
11.396
11.0995
10.6895
10.1436
9.44482
8.5824
7.55491
6.37366
5.06615
3.67829
2.2748
0.936756
-0.244131
-1.1747
-1.77279
-1.91449
-1.44864
-0.358016
1.31677
3.46805
5.91498
8.40661
10.6435
12.3282
13.2488
13.3765
12.9222
12.2709
11.7681
10.78
10.556
10.3515
10.0837
9.70228
9.17251
8.46651
7.56112
6.44004
5.09779
3.54457
1.81079
-0.0496458
-1.95835
-3.8149
-5.50319
-6.90204
-7.89943
-8.37529
-8.10057
-7.01576
-5.1358
-2.54999
0.56278
3.9232
7.15774
9.84122
11.5945
12.2346
11.9164
11.1338
10.4479
9.37768
9.15026
8.91486
8.58608
8.11045
7.44885
6.56747
5.43657
4.03358
2.34841
0.389529
-1.81018
-4.18909
-6.65522
-9.08858
-11.3481
-13.2835
-14.7508
-15.6257
-15.647
-14.6858
-12.7235
-9.81545
-6.11372
-1.89419
2.42501
6.30161
9.1617
10.5928
10.5963
9.72302
8.80728
7.81922
7.59201
7.32537
6.93313
6.3597
5.56188
4.50004
3.13769
1.44572
-0.591005
-2.9662
-5.64509
-8.55898
-11.6031
-14.6388
-17.5011
-20.0117
-21.9966
-23.3068
-23.7046
-22.99
-21.0971
-18.0373
-13.9117
-8.95402
-3.5799
1.58975
5.78745
8.30831
8.87837
7.99903
6.80275
6.13754
5.91487
5.61969
5.16698
4.49993
3.57189
2.33778
0.754508
-1.21353
-3.58667
-6.36124
-9.50121
-12.9319
-16.537
-20.1612
-23.618
-26.7041
-29.2182
-30.9828
-31.7937
-31.4257
-29.7569
-26.7478
-22.4325
-16.9659
-10.7029
-4.27716
1.39069
5.27294
6.69364
5.94258
4.41621
4.37191
4.15863
3.84148
3.33811
2.59126
1.55138
0.168406
-1.60689
-3.81642
-6.48576
-9.61417
-13.1652
-17.0595
-21.1715
-25.3316
-29.3354
-32.9587
-35.978
-38.1917
-39.4159
-39.4452
-38.1274
-35.3659
-31.1245
-25.4545
-18.5935
-11.1037
-3.97566
1.46072
4.02388
3.58512
1.6896
2.56367
2.36479
2.03663
1.50039
0.698484
-0.421382
-1.91386
-3.83399
-6.22969
-9.13173
-12.5427
-16.4268
-20.7016
-25.2349
-29.8465
-34.3181
-38.4095
-41.8806
-44.5129
-46.1255
-46.5535
-45.6559
-43.2949
-39.3683
-33.8206
-26.7324
-18.507
-10.0871
-3.0217
0.950946
1.05762
-1.21916
0.751324
0.571518
0.247978
-0.294516
-1.11495
-2.26914
-3.81658
-5.81797
-8.32706
-11.3797
-14.9823
-19.1006
-23.6514
-28.4989
-33.4563
-38.2961
-42.7674
-46.6181
-49.6196
-51.5851
-52.3834
-51.9061
-50.0257
-46.5846
-41.4392
-34.503
-25.9501
-16.5411
-7.89869
-2.29079
-1.34703
-3.96255
-1.03598
-1.19139
-1.48986
-2.00234
-2.79237
-3.92186
-5.45641
-7.46273
-10.0002
-13.1097
-16.8014
-21.0438
-25.7549
-30.7983
-35.9854
-41.0849
-45.8401
-49.9919
-53.3043
-55.5848
-56.7138
-56.617
-55.209
-52.3297
-47.7683
-41.2945
-32.8194
-22.7942
-12.7207
-5.27641
-3.11095
-5.92088
-2.78433
-2.91246
-3.15599
-3.5903
-4.28789
-5.32115
-6.76453
-8.69163
-11.1672
-14.2363
-17.9127
-22.1678
-26.9226
-32.0435
-37.3442
-42.5948
-47.5386
-51.914
-55.4798
-58.0371
-59.4596
-59.6927
-58.6916
-56.3512
-52.4339
-46.6075
-38.5285
-28.241
-16.9034
-7.38525
-3.44279
-6.11858
-4.4934
-4.59597
-4.75161
-5.04408
-5.57074
-6.42429
-7.69226
-9.45637
-11.7866
-14.7316
-18.3072
-22.4864
-27.1915
-32.2905
-37.5999
-42.8939
-47.9213
-52.4265
-56.1725
-58.9613
-60.6514
-61.1742
-60.4999
-58.589
-55.266
-50.1269
-42.6169
-32.3165
-19.8094
-7.83982
-1.25597
-3.14066
-6.18188
-6.26127
-6.28728
-6.36208
-6.62569
-7.20648
-8.21287
-9.73658
-11.8515
-14.6068
-18.0177
-22.0557
-26.6424
-31.6463
-36.8864
-42.1417
-47.1676
-51.7167
-55.5601
-58.5059
-60.4101
-61.1887
-60.7905
-59.1814
-56.2818
-51.7388
-44.8057
-34.5821
-20.8442
-5.78199
4.82445
4.96225
-7.89764
-7.95247
-7.78651
-7.54484
-7.4367
-7.64408
-8.3044
-9.52005
-11.3656
-13.8866
-17.0931
-20.9519
-25.3812
-30.2485
-35.3744
-40.5426
-45.515
-50.0514
-53.9304
-56.9658
-59.0166
-59.9893
-59.8176
-58.434
-55.7423
-51.4925
-44.9796
-34.7398
-19.5082
-0.346083
16.4437
20.8117
-9.74329
-9.75996
-9.2956
-8.59946
-7.99016
-7.71962
-7.95837
-8.81592
-10.3611
-12.6293
-15.6197
-19.2906
-23.5541
-28.2751
-33.275
-38.3412
-43.2413
-47.7416
-51.6255
-54.7091
-56.8517
-57.955
-57.9363
-56.6973
-54.0787
-49.7803
-43.0934
-32.523
-15.306
9.3686
35.5435
47.9432
-11.924
-11.8575
-10.9118
-9.54961
-8.27635
-7.42468
-7.18436
-7.65949
-8.90177
-10.9273
-13.7188
-17.2216
-21.3392
-25.9327
-30.8233
-35.8016
-40.6403
-45.1106
-48.9984
-52.1189
-54.3246
-55.5076
-55.5757
-54.3852
-51.7024
-47.0799
-39.6237
-27.466
-7.40582
24.606
64.5564
91.2463
-14.8605
-14.5468
-12.7692
-10.4319
-8.29006
-6.76136
-6.01274
-6.11382
-7.08172
-8.90307
-11.5379
-14.9153
-18.9291
-23.435
-28.2541
-33.1792
-37.9876
-42.454
-46.3655
-49.5326
-51.7958
-53.0246
-53.1067
-51.881
-48.9881
-43.7665
-34.9169
-19.8621
5.88653
47.7882
107.005
157.672
-19.5318
-18.3939
-15.0444
-11.2433
-8.00518
-5.72559
-4.48005
-4.25373
-5.00688
-6.68639
-9.22528
-12.5352
-16.4992
-20.968
-25.7617
-30.6757
-35.4903
-39.9834
-43.9417
-47.1693
-49.4909
-50.7462
-50.7717
-49.3669
-46.1272
-39.9876
-28.9979
-9.44747
25.2045
83.4712
168.882
256.879
-28.457
-24.3397
-17.7775
-11.7593
-7.21221
-4.19197
-2.52697
-2.07228
-2.70764
-4.33281
-6.85284
-10.1625
-14.1352
-18.6175
-23.4287
-28.3663
-33.2138
-37.7515
-41.7652
-45.0524
-47.4209
-48.6768
-48.5955
-46.8665
-42.998
-35.5645
-21.4603
4.72052
52.5058
135.407
263.121
399.51
-48.1208
-32.55
-19.5837
-10.6474
-4.83317
-1.33265
0.447002
0.86319
0.130182
-1.61008
-4.24334
-7.65547
-11.7165
-16.273
-21.1468
-26.1394
-31.0387
-35.6281
-39.6939
-43.0273
-45.4199
-46.643
-46.4033
-44.2555
-39.4387
-30.1232
-11.7956
23.0532
87.9831
205.627
408.914
691.112
-103.352
-32.9953
-10.119
-1.10632
3.21726
5.3358
6.0428
5.64567
4.29054
2.06815
-0.942285
-4.65094
-8.9456
-13.6868
-18.7081
-23.8211
-28.8223
-33.5013
-37.6466
-41.0467
-43.4807
-44.6906
-44.3201
-41.7855
-35.9992
-24.5313
-2.10591
40.379
119.755
269.102
567.757
1237.14
VECTORS velocity double
6.97328e-05 -6.97329e-05 0
0.000173555 -3.40892e-05 0
0.000155275 5.23683e-05 0
-3.34549e-05 0.000136362 0
-0.00037475 0.000204933 0
-0.000840212 0.000260529 0
-0.00140849 0.000307754 0
-0.00206463 0.00034838 0
-0.00279369 0.000380677 0
-0.00357472 0.000400353 0
-0.00437682 0.000401752 0
-0.00515749 0.000378918 0
-0.00586296 0.000326553 0
-0.00643051 0.000240994 0
-0.00679284 0.000121335 0
-0.00688488 -2.92927e-05 0
-0.0066532 -0.000202391 0
-0.00606633 -0.000384481 0
-0.00512465 -0.000557198 0
-0.00386898 -0.000698471 0
-0.00238508 -0.000785425 0
-0.000800881 -0.000798777 0
0.000726111 -0.000728215 0
0.00203226 -0.000577934 0
0.00297667 -0.000366474 0
0.00346924 -0.000126103 0
0.00349027 0.00010508 0
0.0030903 0.000294888 0
0.00237294 0.000422465 0
0.00148814 0.000462345 0
0.00064846 0.00037733 0
0.000135565 0.000135565 0
3.11638e-05 -0.00017063 0
-4.85277e-05 4.26767e-05 0
-0.000467697 0.000413051 0
-0.00127245 0.000769159 0
-0.00242577 0.00106676 0
-0.00387324 0.00131164 0
-0.00556483 0.00151651 0
-0.00745313 0.00168406 0
-0.00948371 0.00180464 0
-0.0115862 0.00185996 0
-0.0136698 0.00182784 0
-0.015623 0.00168664 0
-0.0173178 0.0014191 0
-0.0186177 0.00101591 0
-0.0193884 0.000479459 0
-0.0195114 -0.00017241 0
-0.0189001 -0.000902217 0
-0.0175148 -0.0016568 0
-0.0153743 -0.00236714 0
-0.0125663 -0.00295217 0
-0.00925384 -0.00332806 0
-0.00567217 -0.00342202 0
-0.0021147 -0.00318943 0
0.00109486 -0.00263243 0
0.00365039 -0.00181191 0
0.00532052 -0.000843377 0
0.0059958 0.000126057 0
0.00571755 0.000952128 0
0.00466679 0.00153333 0
0.00313813 0.00176495 0
0.00153685 0.00151568 0
0.000387911 0.000659041 0
-9.38844e-05 -0.000107909 0
-0.000576941 0.000542704 0
-0.00165217 0.00140742 0
-0.00328445 0.00221183 0
-0.00539554 0.00288849 0
-0.00790667 0.0034485 0
-0.0107448 0.00390939 0
-0.0138331 0.00426771 0
-0.0170787 0.00449725 0
-0.0203662 0.00455735 0
-0.0235554 0.00440323 0
-0.0264861 0.00399505 0
-0.0289861 0.00330549 0
-0.0308828 0.00232618 0
-0.0320164 0.0010735 0
-0.0322537 -0.000406149 0
-0.0315021 -0.0020314 0
-0.0297194 -0.00369561 0
-0.0269248 -0.00526344 0
-0.0232116 -0.00657711 0
-0.0187554 -0.00747174 0
-0.0138174 -0.00779797 0
-0.00873704 -0.00745134 0
-0.00391087 -0.00640625 0
0.000244951 -0.00474945 0
0.00335988 -0.00269091 0
0.00519385 -0.000535654 0
0.00570251 0.00138343 0
0.0050568 0.00279848 0
0.00360829 0.00347697 0
0.00185916 0.00315408 0
0.000490897 0.00153785 0
-0.000267339 0.000253314 0
-0.00129012 0.00168732 0
-0.00319823 0.00324613 0
-0.00581871 0.00462588 0
-0.00900886 0.00577567 0
-0.0126608 0.00672443 0
-0.016681 0.00749183 0
-0.020968 0.00806049 0
-0.0253984 0.00838058 0
-0.0298226 0.00838564 0
-0.0340673 0.00800883 0
-0.0379436 0.00719641 0
-0.0412575 0.00591804 0
-0.0438217 0.00417463 0
-0.0454675 0.00200444 0
-0.0460551 -0.000512225 0
-0.045481 -0.00325099 0
-0.0436837 -0.00605607 0
-0.0406548 -0.00872644 0
-0.0364577 -0.0110245 0
-0.0312425 -0.0126957 0
-0.025256 -0.0134984 0
-0.018844 -0.0132433 0
-0.012441 -0.0118434 0
-0.00654103 -0.00936808 0
-0.00164245 -0.00608578 0
0.00184021 -0.00245741 0
0.00369962 0.00093712 0
0.00402865 0.00356147 0
0.00318878 0.00500238 0
0.00174441 0.00482216 0
0.000476845 0.00250559 0
-0.000474062 0.000994714 0
-0.00212863 0.00362327 0
-0.00498711 0.00607678 0
-0.00870253 0.00813114 0
-0.0130546 0.00981258 0
-0.0179044 0.0111893 0
-0.0231414 0.0122841 0
-0.0286464 0.0130603 0
-0.0342759 0.0134408 0
-0.0398597 0.0133333 0
-0.0452063 0.0126525 0
-0.050113 0.0113357 0
-0.0543751 0.00935472 0
-0.0577961 0.00672328 0
-0.0601965 0.00350191 0
-0.0614192 -0.000199391 0
-0.0613353 -0.00422183 0
-0.0598448 -0.00837302 0
-0.0568912 -0.012392 0
-0.0524865 -0.0159607 0
-0.0467331 -0.0187281 0
-0.0398415 -0.0203442 0
-0.0321424 -0.0205086 0
-0.0240894 -0.0190342 0
-0.0162423 -0.0159243 0
-0.00922135 -0.0114491 0
-0.00361545 -0.00618267 0
0.000148304 -0.000960794 0
0.00197204 0.00330661 0
0.00216799 0.00590116 0
0.0013582 0.00617755 0
0.000396769 0.0033792 0
-0.000705282 0.00217406 0
-0.00305185 0.00644506 0
-0.00692769 0.00998931 0
-0.011793 0.0127994 0
-0.0173478 0.0150511 0
-0.0234253 0.0168782 0
-0.0299031 0.0183099 0
-0.0366525 0.0192888 0
-0.04352 0.0197093 0
-0.0503262 0.0194547 0
-0.0568718 0.0184234 0
-0.0629464 0.016546 0
-0.0683361 0.0137962 0
-0.0728305 0.0101973 0
-0.0762283 0.00582601 0
-0.0783426 0.000813524 0
-0.0790054 -0.00465585 0
-0.0780708 -0.0103641 0
-0.0754264 -0.015999 0
-0.0710222 -0.0211626 0
-0.0649 -0.0254017 0
-0.0572168 -0.0282453 0
-0.0482668 -0.0292566 0
-0.0384984 -0.0281077 0
-0.028517 -0.0246792 0
-0.0190573 -0.0191749 0
-0.0109006 -0.0122195 0
-0.00472085 -0.00486753 0
-0.000884691 0.00155345 0
0.000752783 0.00582089 0
0.000830301 0.00699009 0
0.00029121 0.00406718 0
-0.000951227 0.00383057 0
-0.00401767 0.0102016 0
-0.00892903 0.01502 0
-0.0149488 0.0186538 0
-0.0217032 0.0215059 0
-0.0290041 0.0238018 0
-0.0367235 0.0255834 0
-0.0447303 0.0267716 0
-0.052869 0.0272327 0
-0.0609577 0.0268262 0
-0.0687939 0.0254338 0
-0.07616 0.0229764 0
-0.082829 0.0194244 0
-0.0885688 0.0148033 0
-0.0931482 0.00919716 0
-0.0963422 0.00275059 0
-0.0979405 -0.00433176 0
-0.0977536 -0.0118097 0
-0.0956169 -0.0193345 0
-0.0914163 -0.026432 0
-0.0851236 -0.0325472 0
-0.0768252 -0.0370814 0
-0.0667519 -0.0394437 0
-0.0553124 -0.0391286 0
-0.0431199 -0.0358322 0
-0.0309947 -0.0296066 0
-0.0199096 -0.0210295 0
-0.0108362 -0.0113107 0
-0.00447939 -0.00219637 0
-0.000976006 0.00442985 0
0.000227989 0.00709962 0
0.000183168 0.00454156 0
-0.00119873 0.00598052 0
-0.0049753 0.0148946 0
-0.0108895 0.0211525 0
-0.0180168 0.0256685 0
-0.0259203 0.0291491 0
-0.0343973 0.0319366 0
-0.0433195 0.0340903 0
-0.0525584 0.0355104 0
-0.0619608 0.0360349 0
-0.0713458 0.0354977 0
-0.0805077 0.0337604 0
-0.0892201 0.0307284 0
-0.0972396 0.0263609 0
-0.10431 0.020677 0
-0.110168 0.0137609 0
-0.114552 0.00576518 0
-0.117213 -0.00308766 0
-0.117926 -0.0125278 0
-0.116486 -0.0221925 0
-0.112719 -0.0315417 0
-0.106522 -0.0399273 0
-0.0978942 -0.0466276 0
-0.0869739 -0.050891 0
-0.0740866 -0.0520082 0
-0.0597983 -0.0494335 0
-0.0449585 -0.0429703 0
-0.0306935 -0.0330158 0
-0.0182882 -0.0208031 0
-0.00888854 -0.00846047 0
-0.00306589 0.00136791 0
-0.000460261 0.00635194 0
7.45383e-05 0.00479927 0
-0.00143116 0.00861041 0
-0.00586504 0.0204752 0
-0.0126956 0.0283166 0
-0.0208303 0.0337663 0
-0.0297799 0.0379043 0
-0.0393327 0.0412111 0
-0.0493629 0.0437682 0
-0.0597469 0.0454554 0
-0.0703355 0.046081 0
-0.0809491 0.0454503 0
-0.0913791 0.0433996 0
-0.10139 0.0398122 0
-0.110722 0.034629 0
-0.1191 0.0278564 0
-0.126234 0.0195736 0
-0.131835 0.00993856 0
-0.135626 -0.000809659 0
-0.137358 -0.0123613 0
-0.136797 -0.0243598 0
-0.133719 -0.0362185 0
-0.127951 -0.0472157 0
-0.119394 -0.0565246 0
-0.108066 -0.0632425 0
-0.0941626 -0.0664471 0
-0.078138 -0.0653076 0
-0.0607899 -0.0592842 0
-0.0433198 -0.048437 0
-0.0272876 -0.0338195 0
-0.0143432 -0.0177882 0
-0.00565729 -0.00381292 0
-0.00128339 0.00455324 0
-4.70173e-05 0.00482679 0
-0.00162967 0.0116712 0
-0.00662186 0.0268404 0
-0.0142281 0.0363882 0
-0.0232155 0.0428169 0
-0.0330526 0.0476404 0
-0.0435204 0.0514955 0
-0.054496 0.0544896 0
-0.0658607 0.0564826 0
-0.0774695 0.0572511 0
-0.0891443 0.0565687 0
-0.100675 0.0542414 0
-0.111819 0.0501253 0
-0.122309 0.0441385 0
-0.131856 0.0362714 0
-0.140159 0.0265963 0
-0.146917 0.0152754 0
-0.151837 0.00256452 0
-0.154653 -0.0111878 0
-0.15512 -0.0256282 0
-0.152989 -0.0401574 0
-0.148024 -0.0540101 0
-0.140024 -0.0662872 0
-0.128869 -0.0759636 0
-0.114582 -0.0819162 0
-0.0974353 -0.0830096 0
-0.0780809 -0.0782846 0
-0.0576825 -0.067305 0
-0.0379748 -0.0506914 0
-0.0210954 -0.0307401 0
-0.00897752 -0.0116647 0
-0.00236228 0.00141589 0
-0.000207142 0.00457263 0
-0.00177513 0.015076 0
-0.00718146 0.0338341 0
-0.0153707 0.0451899 0
-0.0250044 0.0526363 0
-0.035515 0.0581688 0
-0.0466752 0.0625952 0
-0.0583629 0.0660533 0
-0.0704628 0.0683835 0
-0.0828335 0.0693297 0
-0.0952997 0.0686311 0
-0.107652 0.0660612 0
-0.119649 0.0614466 0
-0.131023 0.0546816 0
-0.141488 0.0457406 0
-0.150747 0.0346893 0
-0.158501 0.0216939 0
-0.16446 0.00702503 0
-0.168349 -0.00894249 0
-0.169935 -0.0258214 0
-0.168976 -0.0430535 0
-0.165186 -0.0598686 0
-0.158274 -0.0753408 0
-0.147968 -0.0883713 0
-0.134088 -0.0976756 0
-0.116661 -0.101824 0
-0.0960941 -0.099392 0
-0.0733797 -0.0893104 0
-0.050278 -0.0714954 0
-0.0293098 -0.0477837 0
-0.0132447 -0.0228041 0
-0.00381518 -0.00348951 0
-0.000428884 0.0039366 0
-0.00185055 0.0187017 0
-0.00748734 0.0412516 0
-0.0160223 0.0544967 0
-0.0260505 0.0629914 0
-0.0369719 0.0692458 0
-0.0485465 0.0742529 0
-0.060649 0.0781859 0
-0.0731657 0.0808675 0
-0.0859584 0.0820092 0
-0.0988563 0.0813157 0
-0.111655 0.0785277 0
-0.124122 0.0734442 0
-0.136002 0.0659377 0
-0.147022 0.0559697 0
-0.156906 0.0436025 0
-0.165378 0.0290073 0
-0.172175 0.0124676 0
-0.177046 -0.00562507 0
-0.179777 -0.0248214 0
-0.180148 -0.0446424 0
-0.17786 -0.0643575 0
-0.17255 -0.0830741 0
-0.163805 -0.099689 0
-0.151219 -0.112823 0
-0.134524 -0.120798 0
-0.113787 -0.121722 0
-0.089691 -0.113792 0
-0.0638386 -0.0959682 0
-0.0389513 -0.0691664 0
-0.0185845 -0.0378533 0
-0.0057494 -0.0107049 0
-0.000745729 0.00276199 0
-0.00184347 0.0223957 0
-0.0074979 0.0488488 0
-0.0161082 0.0640447 0
-0.0262452 0.0736085 0
-0.037278 0.0805831 0
-0.0489474 0.0861596 0
-0.0611203 0.0905546 0
-0.0736819 0.093577 0
-0.0864978 0.0949082 0
-0.0994038 0.0942204 0
-0.112207 0.0912247 0
-0.124688 0.0856961 0
-0.136615 0.0774912 0
-0.147743 0.0665648 0
-0.157833 0.0529814 0
-0.166654 0.0369222 0
-0.17399 0.0186851 0
-0.17964 -0.00132172 0
-0.183433 -0.0226005 0
-0.185184 -0.0447417 0
-0.184625 -0.0671051 0
-0.181358 -0.0889036 0
-0.174846 -0.109117 0
-0.16446 -0.126367 0
-0.1496 -0.13881 0
-0.129916 -0.144131 0
-0.105644 -0.139751 0
-0.0780342 -0.12347 0
-0.0497711 -0.0948145 0
-0.0250216 -0.0573216 0
-0.00824602 -0.0208472 0
-0.00118081 0.00083545 0
-0.00174792 0.0259871 0
-0.00719225 0.0563561 0
-0.0155893 0.0735447 0
-0.0255312 0.0841874 0
-0.0363564 0.0918623 0
-0.0477793 0.0979725 0
-0.0596535 0.102789 0
-0.0718618 0.106113 0
-0.0842738 0.1076 0
-0.0967352 0.106896 0
-0.109068 0.103685 0
-0.121076 0.097726 0
-0.132556 0.0888671 0
-0.143304 0.0770651 0
-0.153128 0.0623961 0
-0.161859 0.0450596 0
-0.16935 0.0253738 0
-0.175474 0.00376372 0
-0.180116 -0.0192509 0
-0.183166 -0.0432907 0
-0.184424 -0.0678566 0
-0.1835 -0.0923433 0
-0.179775 -0.115914 0
-0.172418 -0.137312 0
-0.16049 -0.154653 0
-0.143168 -0.165294 0
-0.120121 -0.165907 0
-0.092049 -0.152995 0
-0.0613288 -0.124273 0
-0.0324603 -0.0814813 0
-0.0113519 -0.0345714 0
-0.00175603 -0.00210139 0
-0.00156572 0.0293008 0
-0.00657404 0.0634952 0
-0.0144688 0.0826975 0
-0.0239107 0.0944183 0
-0.0342092 0.102755 0
-0.0450445 0.109338 0
-0.0562525 0.114506 0
-0.0677119 0.118064 0
-0.0792985 0.119648 0
-0.090871 0.118882 0
-0.102272 0.115432 0
-0.113332 0.109048 0
-0.123883 0.0995761 0
-0.133767 0.0869871 0
-0.142848 0.0713801 0
-0.151027 0.0529852 0
-0.158238 0.0321504 0
-0.164447 0.00931958 0
-0.169622 -0.0149895 0
-0.17375 -0.0403751 0
-0.176742 -0.0665222 0
-0.178267 -0.0930763 0
-0.177683 -0.11949 0
-0.17401 -0.144766 0
-0.165995 -0.167141 0
-0.152317 -0.183805 0
-0.131987 -0.190775 0
-0.10497 -0.183216 0
-0.0730469 -0.156695 0
-0.0406949 -0.11028 0
-0.0150759 -0.0525003 0
-0.00249345 -0.00635087 0
-0.00130687 0.0321733 0
-0.00567269 0.0699967 0
-0.0127938 0.0912118 0
-0.021448 0.104 0
-0.0309196 0.112943 0
-0.0408484 0.119914 0
-0.0510482 0.125338 0
-0.0613936 0.129036 0
-0.0717689 0.130637 0
-0.0820512 0.129747 0
-0.092108 0.126024 0
-0.101803 0.119211 0
-0.111006 0.109166 0
-0.119604 0.0958786 0
-0.127517 0.0794837 0
-0.134714 0.0602567 0
-0.141215 0.0385911 0
-0.147087 0.0149604 0
-0.152415 -0.0101278 0
-0.157295 -0.036229 0
-0.16176 -0.063211 0
-0.165603 -0.0910197 0
-0.168239 -0.119495 0
-0.168626 -0.148048 0
-0.165267 -0.175234 0
-0.156364 -0.198291 0
-0.140212 -0.212771 0
-0.115885 -0.212565 0
-0.0842817 -0.190873 0
-0.0494447 -0.143291 0
-0.0194162 -0.0751365 0
-0.00343451 -0.0122788 0
-0.000988988 0.0344692 0
-0.00454223 0.0756199 0
-0.0106538 0.0988213 0
-0.0182664 0.112657 0
-0.0266469 0.122138 0
-0.0353904 0.129391 0
-0.0442851 0.134955 0
-0.0532023 0.138682 0
-0.0620392 0.140204 0
-0.070697 0.139121 0
-0.0790759 0.135086 0
-0.0870778 0.127846 0
-0.0946147 0.117271 0
-0.10162 0.103377 0
-0.108062 0.0863419 0
-0.113966 0.066499 0
-0.119423 0.0443058 0
-0.124593 0.0202885 0
-0.129687 -0.00503458 0
-0.134911 -0.0312179 0
-0.140424 -0.0582435 0
-0.146197 -0.0863716 0
-0.151803 -0.115901 0
-0.15626 -0.146798 0
-0.157943 -0.178161 0
-0.154659 -0.207552 0
-0.143984 -0.230338 0
-0.123979 -0.239329 0
-0.0943938 -0.225296 0
-0.0583925 -0.179706 0
-0.0243732 -0.10277 0
-0.00464351 -0.0203568 0
-0.000636008 0.0360942 0
-0.00325808 0.0801702 0
-0.00817598 0.1053 0
-0.014541 0.120156 0
-0.0216151 0.130094 0
-0.0289472 0.137511 0
-0.0362974 0.14308 0
-0.0435355 0.146712 0
-0.0505769 0.148052 0
-0.0573546 0.146708 0
-0.06381 0.142334 0
-0.0698923 0.134683 0
-0.075563 0.123641 0
-0.080804 0.109252 0
-0.0856305 0.0917358 0
-0.0901074 0.071486 0
-0.0943684 0.0490362 0
-0.0986289 0.024989 0
-0.103179 -9.14541e-05 0
-0.108327 -0.0257885 0
-0.114367 -0.0521204 0
-0.12147 -0.0796187 0
-0.129459 -0.109058 0
-0.137568 -0.141076 0
-0.144224 -0.175544 0
-0.146987 -0.210689 0
-0.142786 -0.242078 0
-0.128606 -0.261774 0
-0.102807 -0.258237 0
-0.0672204 -0.218353 0
-0.0299561 -0.135406 0
-0.00620307 -0.0312034 0
-0.000276521 0.0370067 0
-0.0019129 0.0835162 0
-0.00551926 0.110479 0
-0.0104899 0.126313 0
-0.0160997 0.136621 0
-0.0218531 0.144069 0
-0.027482 0.149501 0
-0.0328565 0.152904 0
-0.037916 0.153961 0
-0.0426335 0.152294 0
-0.0470012 0.14757 0
-0.0510255 0.139553 0
-0.0547277 0.128144 0
-0.0581463 0.113409 0
-0.0613444 0.0956035 0
-0.0644204 0.0751713 0
-0.0675231 0.0527145 0
-0.0708697 0.0289179 0
-0.0747595 0.00441959 0
-0.0795526 -0.020358 0
-0.0856411 -0.0454231 0
-0.0933831 -0.071471 0
-0.102915 -0.0996841 0
-0.113845 -0.131411 0
-0.124892 -0.167506 0
-0.133611 -0.207244 0
-0.136445 -0.24689 0
-0.129328 -0.278259 0
-0.109042 -0.287837 0
-0.0756324 -0.257748 0
-0.036177 -0.17273 0
-0.00820129 -0.0456078 0
5.66055e-05 0.0372266 0
-0.000614201 0.0856034 0
-0.00286891 0.114253 0
-0.00636583 0.131007 0
-0.0104143 0.141585 0
-0.0144809 0.148925 0
-0.0182715 0.154065 0
-0.0216598 0.157103 0
-0.0246144 0.157776 0
-0.0271554 0.155738 0
-0.0293336 0.150673 0
-0.0312221 0.142364 0
-0.032911 0.130725 0
-0.0345049 0.115841 0
-0.0361238 0.0979888 0
-0.0379046 0.0776428 0
-0.0400042 0.0554452 0
-0.0426093 0.0321389 0
-0.0459595 0.0084386 0
-0.0503743 -0.0151691 0
-0.0562534 -0.0386445 0
-0.0640619 -0.062699 0
-0.074234 -0.088752 0
-0.0868705 -0.118776 0
-0.101242 -0.154723 0
-0.115241 -0.197309 0
-0.125126 -0.244106 0
-0.125916 -0.287371 0
-0.112715 -0.312212 0
-0.083352 -0.296146 0
-0.0430362 -0.214104 0
-0.0107186 -0.0645277 0
0.000320445 0.0368496 0
0.000509016 0.0864627 0
-0.00043622 0.116593 0
-0.0024512 0.134178 0
-0.00490005 0.144911 0
-0.00722432 0.15199 0
-0.0091108 0.156677 0
-0.0104416 0.15921 0
-0.0112194 0.159402 0
-0.0115163 0.15695 0
-0.011447 0.15157 0
-0.0111555 0.143064 0
-0.0108069 0.131365 0
-0.0105776 0.116565 0
-0.0106528 0.0989582 0
-0.011222 0.0790234 0
-0.0124656 0.0574078 0
-0.0145476 0.0348634 0
-0.0176251 0.0121418 0
-0.0218933 -0.0101893 0
-0.0276325 -0.0320059 0
-0.0352701 -0.0538915 0
-0.0454039 -0.0772535 0
-0.058609 -0.104433 0
-0.0749127 -0.138391 0
-0.0929605 -0.181594 0
-0.109285 -0.233612 0
-0.118309 -0.28805 0
-0.113497 -0.329545 0
-0.0900842 -0.331589 0
-0.0504962 -0.258564 0
-0.0138174 -0.0890636 0
0.00049808 0.0360311 0
0.00133764 0.0862531 0
0.00152719 0.117559 0
0.000932394 0.135823 0
7.92324e-05 0.146569 0
-0.000483327 0.153219 0
-0.000433551 0.157284 0
0.000330876 0.159169 0
0.00176772 0.158784 0
0.00374812 0.155884 0
0.00609053 0.150223 0
0.00857901 0.14163 0
0.0109746 0.130055 0
0.0130238 0.115597 0
0.0144713 0.098554 0
0.0150753 0.0793928 0
0.0146226 0.0587346 0
0.0129461 0.0372951 0
0.00993634 0.0157973 0
0.00553318 -0.00517352 0
-0.00035224 -0.025397 0
-0.0079676 -0.0452475 0
-0.017843 -0.0658883 0
-0.030803 -0.0896332 0
-0.0476278 -0.120062 0
-0.0680792 -0.161423 0
-0.0895833 -0.215954 0
-0.106538 -0.279728 0
-0.111024 -0.338193 0
-0.0954336 -0.361944 0
-0.0584307 -0.304801 0
-0.0175279 -0.120409 0
0.000565875 0.0349671 0
0.00177496 0.0852684 0
0.00280165 0.117327 0
0.0034516 0.135999 0
0.00414442 0.146553 0
0.00536069 0.152582 0
0.00738482 0.155848 0
0.0102818 0.156943 0
0.0139591 0.155895 0
0.0182261 0.152526 0
0.0228335 0.146632 0
0.0274947 0.138072 0
0.0319008 0.126811 0
0.0357314 0.112961 0
0.0386719 0.0968026 0
0.040434 0.0787782 0
0.0407749 0.0594609 0
0.0395193 0.039501 0
0.0365771 0.0195433 0
0.0319489 0.000111837 0
0.0256851 -0.0185331 0
0.0177652 -0.0365762 0
0.00793193 -0.054851 0
-0.00454014 -0.0752384 0
-0.0208519 -0.101321 0
-0.0419467 -0.138619 0
-0.0667942 -0.192407 0
-0.0906349 -0.26248 0
-0.104776 -0.336815 0
-0.098768 -0.38492 0
-0.0665285 -0.351067 0
-0.0218184 -0.159755 0
0.000483046 0.0339182 0
0.00167673 0.0839146 0
0.00312946 0.116201 0
0.00476592 0.134838 0
0.00691319 0.144874 0
0.0099207 0.150037 0
0.0139694 0.15232 0
0.0190461 0.152498 0
0.0249896 0.15072 0
0.0315429 0.146881 0
0.0383912 0.140822 0
0.0451848 0.132427 0
0.051556 0.121679 0
0.0571327 0.108686 0
0.061558 0.0937112 0
0.0645124 0.0771531 0
0.0657361 0.0595213 0
0.0650506 0.0413818 0
0.0623729 0.0232825 0
0.057714 0.0056598 0
0.0511526 -0.0112558 0
0.0427646 -0.0275457 0
0.0325065 -0.0437902 0
0.0200681 -0.0613887 0
0.00456458 -0.0833549 0
-0.0157102 -0.115215 0
-0.0416985 -0.164975 0
-0.0705619 -0.237208 0
-0.0939492 -0.324559 0
-0.0990248 -0.398108 0
-0.0741262 -0.395017 0
-0.026534 -0.208108 0
0.000172105 0.033263 0
0.00080913 0.082739 0
0.00215948 0.114574 0
0.00447569 0.132513 0
0.007984 0.141543 0
0.0128204 0.145524 0
0.0189781 0.146627 0
0.0263105 0.145782 0
0.0345632 0.14324 0
0.043408 0.138962 0
0.0524711 0.132829 0
0.0613529 0.124745 0
0.069643 0.1147 0
0.0769365 0.102795 0
0.0828527 0.0892609 0
0.0870582 0.0744436 0
0.0892881 0.0587771 0
0.0893646 0.0427349 0
0.0872057 0.0267659 0
0.0828183 0.0112226 0
0.0762718 -0.00371061 0
0.0676627 -0.0180938 0
0.0570448 -0.0323661 0
0.0443131 -0.0476427 0
0.0290116 -0.0662958 0
0.0100057 -0.0929932 0
-0.0149566 -0.136246 0
-0.0461827 -0.205847 0
-0.0773439 -0.301371 0
-0.094469 -0.399095 0
-0.0799452 -0.433453 0
-0.031284 -0.265926 0
-0.000518741 0.0336097 0
-0.00122928 0.0824659 0
-0.000612156 0.11288 0
0.00210225 0.129177 0
0.00694591 0.136527 0
0.013722 0.138927 0
0.0221355 0.138653 0
0.0318456 0.136713 0
0.0424797 0.133421 0
0.0536373 0.128778 0
0.0648974 0.122689 0
0.0758276 0.115072 0
0.0859956 0.105914 0
0.0949836 0.0952991 0
0.102407 0.0834176 0
0.107933 0.070555 0
0.111304 0.0570649 0
0.112347 0.0433272 0
0.110983 0.0296966 0
0.107216 0.0164466 0
0.101114 0.00371435 0
0.0927738 -0.00856991 0
0.082275 -0.0207732 0
0.0695968 -0.0338257 0
0.054481 -0.0496955 0
0.0361955 -0.0723022 0
0.0131783 -0.108957 0
-0.0172381 -0.171493 0
-0.0533322 -0.26847 0
-0.0824309 -0.385773 0
-0.0816994 -0.46203 0
-0.0352493 -0.332459 0
-0.00183251 0.0359609 0
-0.00504998 0.0840427 0
-0.00589242 0.111528 0
-0.0029165 0.124838 0
0.00343988 0.129666 0
0.0124148 0.130037 0
0.0233296 0.128214 0
0.0356013 0.12517 0
0.0487277 0.121204 0
0.0622451 0.116321 0
0.075704 0.110428 0
0.0886619 0.103445 0
0.100687 0.0953474 0
0.111372 0.0861931 0
0.120346 0.0761268 0
0.127296 0.0653694 0
0.131982 0.0541933 0
0.134249 0.0428889 0
0.134025 0.0317222 0
0.131323 0.0208911 0
0.126216 0.0104794 0
0.118819 0.000401327 0
0.109235 -0.00966142 0
0.09746 -0.0204845 0
0.0832842 -0.0337451 0
0.066131 -0.0528139 0
0.0447521 -0.0840497 0
0.0169149 -0.138147 0
-0.0198914 -0.228915 0
-0.0590955 -0.357024 0
-0.0755456 -0.47506 0
-0.0368585 -0.404567 0
-0.00422699 0.0420204 0
-0.0115728 0.0885464 0
-0.0144007 0.110695 0
-0.0109082 0.119203 0
-0.00250779 0.120545 0
0.00919037 0.118485 0
0.0230083 0.115033 0
0.0381206 0.110968 0
0.053917 0.106484 0
0.0698994 0.101541 0
0.0856195 0.096029 0
0.100653 0.0898529 0
0.114597 0.0829702 0
0.127076 0.0754069 0
0.137756 0.0672589 0
0.146362 0.0586813 0
0.152689 0.049868 0
0.156613 0.0410247 0
0.158087 0.0323358 0
0.157138 0.0239292 0
0.153848 0.0158376 0
0.148336 0.00795204 0
0.140734 -2.60442e-05 0
0.131088 -0.00869926 0
0.119168 -0.0194342 0
0.104373 -0.0351768 0
0.0855165 -0.0614513 0
0.0603553 -0.107747 0
0.0255923 -0.187746 0
-0.0194533 -0.313944 0
-0.0553927 -0.465751 0
-0.0332654 -0.474691 0
-0.0083675 0.0546149 0
-0.0216978 0.096628 0
-0.0259823 0.109726 0
-0.020622 0.111319 0
-0.00888875 0.108295 0
0.00653629 0.103612 0
0.0239824 0.0986421 0
0.0424467 0.0937815 0
0.0612896 0.0890307 0
0.0800386 0.084263 0
0.0982924 0.0793331 0
0.115682 0.0741249 0
0.131864 0.0685727 0
0.146521 0.0626683 0
0.15938 0.0564582 0
0.170223 0.0500339 0
0.178895 0.0435159 0
0.185316 0.0370329 0
0.189472 0.0306972 0
0.191411 0.0245784 0
0.191216 0.018672 0
0.188987 0.0128598 0
0.1848 0.00685463 0
0.178715 0.000150887 0
0.170574 -0.00822315 0
0.15973 -0.0207488 0
0.144827 -0.0421197 0