# vtk DataFile Version 2.0
Lid-driven cavity
ASCII
DATASET STRUCTURED_POINTS
DIMENSIONS 32 32 1
ORIGIN 0.015625 0.015625 0
SPACING 0.03125 0.03125 1
POINT_DATA 1024
SCALARS pressure double 1
LOOKUP_TABLE default
9.11551
9.09014
9.06174
9.04348
9.0405
9.05405
9.08424
9.13133
9.19613
9.27981
9.38355
9.50809
9.65326
9.81757
9.99785
10.189
10.3843
10.5749
10.751
10.9025
11.0205
11.0988
11.1351
11.1317
11.0952
11.0351
10.9627
10.8887
10.8227
10.7731
10.7459
10.743
9.14089
9.11445
9.09271
9.08144
9.08339
9.09958
9.1305
9.17678
9.23942
9.31962
9.4185
9.53674
9.67422
9.82958
9.9999
10.1805
10.365
10.5453
10.7119
10.8554
10.9673
11.0418
11.0771
11.0758
11.0443
10.9919
10.929
10.8653
10.8088
10.7661
10.7421
10.74
9.16953
9.13323
9.11094
9.1024
9.10709
9.12464
9.15516
9.19934
9.25836
9.33364
9.42655
9.5381
9.66854
9.81701
9.98109
10.1566
10.3371
10.5145
10.6794
10.8219
10.9331
11.0068
11.0409
11.0382
11.006
10.9538
10.8923
10.8314
10.778
10.7376
10.7145
10.7124
9.18328
9.13498
9.10897
9.10033
9.10552
9.12259
9.15099
9.19133
9.24493
9.31357
9.39908
9.50305
9.62644
9.76914
9.92954
10.104
10.2858
10.4666
10.6365
10.7848
10.9014
10.9789
11.0144
11.0101
10.9738
10.9168
10.8509
10.7863
10.7304
10.6881
10.6629
10.6585
9.16774
9.10771
9.07693
9.06647
9.07021
9.08478
9.10902
9.14337
9.18938
9.24921
9.32527
9.41994
9.53508
9.67163
9.8291
10.0049
10.1917
10.3811
10.5625
10.7241
10.8541
10.943
10.9858
10.9837
10.9442
10.8797
10.8044
10.7309
10.667
10.618
10.5874
10.5785
9.11023
9.03943
9.00374
8.99041
8.99105
9.00109
9.01887
9.04472
9.08035
9.12832
9.1917
9.27371
9.37733
9.50481
9.65718
9.83353
10.0268
10.2282
10.4273
10.611
10.7653
10.8776
10.9395
10.949
10.9121
10.8417
10.7545
10.6664
10.5887
10.5277
10.4874
10.4716
8.99874
8.91823
8.87774
8.86074
8.85672
8.86009
8.86874
8.88285
8.9042
8.93569
8.98096
9.04417
9.12956
9.241
9.3815
9.55256
9.74938
9.96332
10.1849
10.4004
10.5935
10.7473
10.8477
10.8871
10.867
10.7989
10.7013
10.5948
10.4965
10.4166
10.361
10.335
8.82152
8.73226
8.68704
8.66548
8.65503
8.64913
8.64515
8.64298
8.64427
8.65203
8.67036
8.70431
8.75956
8.84208
8.9575
9.11043
9.30089
9.52212
9.76747
10.024
10.2733
10.4931
10.6615
10.7614
10.7854
10.7391
10.6404
10.5154
10.3897
10.282
10.2042
10.163
8.5671
8.46998
8.41982
8.39238
8.37313
8.35442
8.33291
8.30789
8.28054
8.2536
8.23138
8.21974
8.22604
8.25886
8.32739
8.4405
8.60474
8.81887
9.08243
9.38555
9.70891
10.025
10.3017
10.508
10.6212
10.6339
10.558
10.4227
10.2656
10.1205
10.0098
9.94652
8.22462
8.12047
8.06475
8.02946
7.99802
7.96156
7.91566
7.85855
7.79037
7.71313
7.63091
7.55028
7.48049
7.43343
7.42306
7.46417
7.57048
7.75043
8.0154
8.36244
8.77415
9.21871
9.65265
10.0268
10.2957
10.4291
10.4225
10.3016
10.1164
9.92349
9.76673
9.67213
7.78453
7.67413
7.61175
7.56575
7.5175
7.45664
7.37719
7.27569
7.15059
7.00246
6.83466
6.65423
6.47249
6.30541
6.17304
6.0981
6.10344
6.20785
6.44155
6.81627
7.3205
7.92108
8.56399
9.17931
9.69165
10.0359
10.176
10.1207
9.92656
9.67985
9.46183
9.32196
7.23937
7.12355
7.05288
6.99242
6.9215
6.8279
6.70358
6.54265
6.34104
6.09709
5.81282
5.49534
5.15819
4.82204
4.51441
4.26802
4.11746
4.09418
4.2453
4.61317
5.19719
5.96777
6.86406
7.7961
8.65399
9.3261
9.72619
9.82423
9.66744
9.37213
9.07572
8.87256
6.58482
6.46445
6.3835
6.30418
6.20379
6.06799
5.88605
5.64891
5.34909
4.98188
4.54716
4.05168
3.51106
2.95117
2.40819
1.92683
1.55624
1.34366
1.34613
1.65289
2.28147
3.21302
4.38686
5.69838
7.00398
8.1378
8.9444
9.32614
9.29173
8.9746
8.58454
8.29518
5.82063
5.69668
5.60337
5.50062
5.36381
5.1762
4.92386
4.59384
4.17444
3.65698
3.03848
2.32463
1.53287
0.694393
-0.145187
-0.927632
-1.5866
-2.05503
-2.27017
-2.09812
-1.48506
-0.431962
1.0103
2.73306
4.56732
6.29344
7.67288
8.50889
8.72897
8.45081
7.96113
7.55725
4.95123
4.82485
4.71743
4.58728
4.40803
4.16036
3.82677
3.38982
2.83289
2.14261
1.31229
0.345933
-0.737815
-1.90265
-3.0934
-4.23752
-5.25007
-6.04235
-6.53399
-6.57998
-6.06357
-4.96058
-3.30138
-1.1837
1.21466
3.63241
5.74562
7.23187
7.88557
7.75189
7.17504
6.62233
3.98594
3.85852
3.73611
3.57612
3.35065
3.03781
2.61627
2.06375
1.35826
0.481132
-0.57865
-1.81951
-3.2223
-4.7463
-6.32727
-7.87857
-9.29637
-10.4692
-11.2916
-11.6259
-11.2985
-10.2439
-8.46251
-6.02459
-3.09321
0.0538322
3.02225
5.35193
6.65291
6.81853
6.19546
5.45385
2.93843
2.81163
2.67475
2.48502
2.21326
1.83505
1.32521
0.65655
-0.198515
-1.26422
-2.55639
-4.0765
-5.80574
-7.69999
-9.68713
-11.6677
-13.52
-15.1102
-16.307
-16.9749
-16.9219
-16.0268
-14.2513
-11.6241
-8.26739
-4.4394
-0.56966
2.75616
4.92662
5.59055
4.99933
4.02612
1.8255
1.7012
1.55232
1.33648
1.02335
0.586086
-0.00420815
-0.779538
-1.77296
-3.0143
-4.52436
-6.30817
-8.34809
-10.5979
-12.9795
-15.3826
-17.6703
-19.6889
-21.2833
-22.3093
-22.5848
-21.954
-20.3256
-17.6793
-14.0741
-9.7082
-4.99313
-0.597721
2.63753
4.02759
3.58905
2.34522
0.665226
0.545389
0.389352
0.155427
-0.187996
-0.670285
-1.32391
-2.18539
-3.29293
-4.68168
-6.37732
-8.3887
-10.7002
-13.265
-16.0009
-18.7902
-21.484
-23.913
-25.9029
-27.2921
-27.9169
-27.6219
-26.2699
-23.7841
-20.15
-15.4699
-10.0744
-4.64284
-0.209591
2.14221
2.02477
0.487569
-0.525456
-0.63898
-0.7946
-1.0334
-1.38903
-1.89387
-2.58407
-3.50037
-4.68563
-6.17975
-8.01294
-10.1978
-12.7215
-15.5379
-18.5637
-21.6767
-24.7206
-27.5154
-29.8726
-31.6143
-32.5857
-32.6492
-31.6641
-29.4933
-26.0514
-21.3243
-15.5023
-9.17948
-3.49963
0.0405957
0.470145
-1.3451
-1.73339
-1.83921
-1.98374
-2.20825
-2.55021
-3.04643
-3.73731
-4.66771
-5.88452
-7.43159
-9.3429
-11.6345
-14.2964
-17.285
-20.518
-23.8728
-27.1906
-30.2858
-32.9614
-35.0285
-36.3286
-36.7416
-36.1502
-34.3976
-31.3275
-26.8127
-20.8612
-13.8791
-6.9868
-2.04102
-0.756683
-2.75997
-2.95289
-3.0497
-3.1687
-3.35273
-3.64661
-4.09443
-4.74221
-5.63909
-6.83527
-8.37736
-10.3019
-12.6276
-15.3472
-18.4204
-21.7684
-25.2719
-28.7746
-32.0912
-35.0222
-37.372
-38.9733
-39.7114
-39.4911
-38.1886
-35.5979
-31.496
-25.6953
-18.3225
-10.3039
-3.71921
-1.13958
-3.10461
-4.1881
-4.27615
-4.34936
-4.45771
-4.65948
-5.01077
-5.56564
-6.3779
-7.5004
-8.9815
-10.8591
-13.1532
-15.8581
-18.9358
-22.3107
-25.8684
-29.4586
-32.9031
-36.009
-38.5833
-40.4508
-41.4833
-41.5918
-40.6941
-38.6078
-35.0272
-29.5862
-22.0657
-13.0055
-4.47757
0.0601009
-1.3993
-5.45636
-5.53637
-5.53709
-5.52309
-5.57751
-5.77632
-6.18524
-6.86342
-7.86553
-9.2399
-11.0236
-13.2359
-15.8707
-18.8904
-22.2219
-25.7548
-29.3457
-32.8256
-36.0121
-38.7234
-40.7911
-42.078
-42.4776
-41.9047
-40.2472
-37.1952
-32.215
-24.71
-14.6329
-3.71184
3.80516
3.73621
-6.79677
-6.86722
-6.7548
-6.55572
-6.39463
-6.37745
-6.58553
-7.08348
-7.92584
-9.15834
-10.8147
-12.9108
-15.4383
-18.3588
-21.6
-25.0551
-28.5866
-32.0342
-35.2261
-37.9924
-40.1764
-41.6434
-42.2793
-41.9722
-40.599
-37.9284
-33.3811
-25.9356
-14.7601
-0.781154
11.2722
14.1837
-8.28746
-8.33987
-8.04592
-7.56977
-7.10667
-6.80332
-6.7576
-7.03693
-7.69182
-8.7616
-10.2734
-12.2374
-14.641
-17.4434
-20.5724
-23.9238
-27.3653
-30.7437
-33.8959
-36.6611
-38.8913
-40.4582
-41.2458
-41.1264
-39.9309
-37.399
-32.9617
-25.4532
-12.9518
5.00238
23.8689
32.5001
-10.0769
-10.0776
-9.47919
-8.58887
-7.71143
-7.04644
-6.70084
-6.73596
-7.19122
-8.0943
-9.46209
-11.2967
-13.5796
-16.2669
-19.2853
-22.5325
-25.8805
-29.1818
-32.2798
-35.0187
-37.2538
-38.8574
-39.715
-39.6811
-38.5425
-35.936
-31.1815
-22.8607
-8.54651
14.5776
43.3692
62.2367
-12.4709
-12.3024
-11.1558
-9.63579
-8.20291
-7.0987
-6.42063
-6.20408
-6.46608
-7.21626
-8.45776
-10.1826
-12.3654
-14.9581
-17.8864
-21.049
-24.3211
-27.5597
-30.6123
-33.3252
-35.5515
-37.1548
-38.007
-37.9632
-36.7435
-33.8442
-28.3045
-18.221
-0.246669
29.7228
72.3446
108.463
-16.1682
-15.4183
-13.1992
-10.6978
-8.53557
-6.92829
-5.90954
-5.45843
-5.55503
-6.18424
-7.33258
-8.98096
-11.0968
-13.6277
-16.4977
-19.6063
-22.831
-26.0319
-29.0588
-31.7576
-33.9754
-35.5605
-36.3554
-36.1765
-34.738
-31.2894
-24.4082
-11.4003
12.5647
53.8484
115.182
178.289
-22.9371
-20.0613
-15.5949
-11.5607
-8.49822
-6.38001
-5.06134
-4.43299
-4.42339
-4.98764
-6.0946
-7.71413
-9.80674
-12.3161
-15.1645
-18.252
-21.4574
-24.6433
-27.6605
-30.353
-32.5601
-34.1111
-34.8104
-34.4034
-32.5125
-28.2193
-19.2682
-1.7528
31.2806
89.8108
181.207
279.76
-37.3045
-26.2161
-17.211
-11.1317
-7.19091
-4.73712
-3.32921
-2.71487
-2.75883
-3.3884
-4.55975
-6.23659
-8.37648
-10.922
-13.7959
-16.8996
-20.1144
-23.305
-26.3236
-29.012
-31.2009
-32.6987
-33.2656
-32.5562
-30.0063
-24.4139
-12.5388
11.0513
56.1867
139.329
284.429
486.769
-77.1115
-26.5723
-10.4661
-4.37021
-1.52731
-0.0847114
0.541574
0.564694
0.0688937
-0.911143
-2.35729
-4.25058
-6.56062
-9.23894
-12.2155
-15.3979
-18.673
-21.91
-24.9636
-27.6753
-29.8689
-31.3353
-31.793
-30.8034
-27.5816
-20.4592
-5.6461
23.4369
78.9673
184.858
398.279
878.297
VECTORS velocity double
5.52598e-05 -5.52599e-05 0
0.000111379 -8.5932e-07 0
2.53262e-05 8.69117e-05 0
-0.00022203 0.000160444 0
-0.000595136 0.000212662 0
-0.00105768 0.000249881 0
-0.00158648 0.000278921 0
-0.00216826 0.000302856 0
-0.00279199 0.000320871 0
-0.00344235 0.000329495 0
-0.0040958 0.000323955 0
-0.00471901 0.000299254 0
-0.0052693 0.000251034 0
-0.00569673 0.000176399 0
-0.00594797 7.48378e-05 0
-0.00597207 -5.07369e-05 0
-0.00572844 -0.000192893 0
-0.0051949 -0.000340644 0
-0.004375 -0.000479256 0
-0.00330455 -0.000591193 0
-0.00205492 -0.000658438 0
-0.000730484 -0.000666003 0
0.000541659 -0.000606141 0
0.00163024 -0.000482443 0
0.00242232 -0.000309635 0
0.00284468 -0.000112728 0
0.00287876 7.86494e-05 0
0.00256172 0.000238392 0
0.00197541 0.00034792 0
0.00124314 0.000384346 0
0.000543461 0.000315335 0
0.000114063 0.000114062 0
-3.57859e-06 -0.000106941 0
-0.000176656 0.00016778 0
-0.000705796 0.000533466 0
-0.00158477 0.000840214 0
-0.0027432 0.00106444 0
-0.00410955 0.00122699 0
-0.00562968 0.00135074 0
-0.00726214 0.00144527 0
-0.00896605 0.00150609 0
-0.0106905 0.00151905 0
-0.0123683 0.00146566 0
-0.013915 0.00132745 0
-0.0152315 0.00108961 0
-0.0162103 0.000744074 0
-0.0167446 0.000292746 0
-0.01674 -0.0002492 0
-0.0161283 -0.000849733 0
-0.0148801 -0.00146549 0
-0.013014 -0.00204042 0
-0.0106056 -0.00250895 0
-0.00779224 -0.00280363 0
-0.00477093 -0.00286655 0
-0.00178531 -0.00266336 0
0.000898516 -0.00219763 0
0.00303136 -0.00151937 0
0.00442633 -0.000720332 0
0.00499534 8.31614e-05 0
0.00477104 0.000775223 0
0.00389981 0.00126863 0
0.00262488 0.00147084 0
0.00128574 0.00126766 0
0.000324376 0.000552501 0
-0.000130948 2.75847e-05 0
-0.000701702 0.000777084 0
-0.00185524 0.00160684 0
-0.00349616 0.00228673 0
-0.00550861 0.0027888 0
-0.0077953 0.00315567 0
-0.010282 0.00342892 0
-0.0129056 0.00362312 0
-0.0155988 0.0037254 0
-0.0182797 0.003705 0
-0.0208464 0.00352425 0
-0.0231787 0.00314784 0
-0.0251432 0.00255023 0
-0.0266025 0.00172161 0
-0.0274264 0.000673369 0
-0.0275041 -0.000556779 0
-0.0267575 -0.00190037 0
-0.0251512 -0.00326933 0
-0.0227019 -0.00455201 0
-0.0194896 -0.00561814 0
-0.0156656 -0.00633173 0
-0.0114547 -0.0065707 0
-0.00714754 -0.00625197 0
-0.00308109 -0.0053593 0
0.000396829 -0.00396847 0
0.0029836 -0.00225298 0
0.00448897 -0.000458572 0
0.00488381 0.00114641 0
0.00431298 0.00233949 0
0.00307004 0.00291784 0
0.00157853 0.0026513 0
0.000415942 0.00129282 0
-0.000289493 0.000448025 0
-0.00134658 0.00198448 0
-0.00323671 0.00344311 0
-0.00573344 0.00458812 0
-0.00866092 0.00542733 0
-0.0118976 0.0060405 0
-0.0153562 0.00648947 0
-0.0189597 0.00678964 0
-0.0226224 0.00691479 0
-0.0262399 0.00681395 0
-0.0296868 0.00642896 0
-0.0328203 0.00570886 0
-0.0354872 0.00462065 0
-0.0375341 0.00315746 0
-0.0388178 0.001345 0
-0.0392156 -0.000752951 0
-0.0386335 -0.00303278 0
-0.0370139 -0.00536291 0
-0.0343468 -0.00757481 0
-0.0306861 -0.0094683 0
-0.0261632 -0.0108284 0
-0.0209962 -0.011452 0
-0.0154908 -0.0111832 0
-0.0100291 -0.00995629 0
-0.00503889 -0.00783958 0
-0.000941886 -0.00506564 0
0.0019257 -0.00201886 0
0.00341029 0.000827269 0
0.00360391 0.00303586 0
0.0028164 0.00425192 0
0.00153009 0.00409504 0
0.000416498 0.00212526 0
-0.000466225 0.00120374 0
-0.00206085 0.00388048 0
-0.00475303 0.00612942 0
-0.00816374 0.00780925 0
-0.0120509 0.00902083 0
-0.016271 0.00990381 0
-0.02073 0.0105437 0
-0.0253442 0.0109531 0
-0.0300178 0.0110877 0
-0.0346331 0.0108739 0
-0.0390503 0.0102331 0
-0.0431121 0.00909995 0
-0.0466517 0.0074361 0
-0.0495016 0.0052389 0
-0.0515022 0.0025478 0
-0.0525089 -0.000551313 0
-0.0523982 -0.00392716 0
-0.0510729 -0.00741349 0
-0.0484759 -0.0107883 0
-0.044613 -0.0137784 0
-0.039574 -0.0160803 0
-0.0335493 -0.0173919 0
-0.0268408 -0.0174571 0
-0.0198609 -0.016124 0
-0.0131127 -0.0134104 0
-0.0071408 -0.00956372 0
-0.00244605 -0.00508312 0
0.000629765 -0.000668879 0
0.00203876 0.0029294 0
0.00206944 0.00511521 0
0.00126191 0.00532559 0
0.000364223 0.00290598 0
-0.000655381 0.00232535 0
-0.00281755 0.00651567 0
-0.00634503 0.00971387 0
-0.0106992 0.0119897 0
-0.0155744 0.0136026 0
-0.0208104 0.0147781 0
-0.0263121 0.0156301 0
-0.031996 0.0161648 0
-0.0377626 0.0163162 0
-0.0434874 0.0159855 0
-0.049021 0.0150722 0
-0.0541943 0.0134959 0
-0.0588256 0.011211 0
-0.0627274 0.00821567 0
-0.0657133 0.0045575 0
-0.0676044 0.00033677 0
-0.0682356 -0.00429474 0
-0.0674606 -0.00914622 0
-0.0651649 -0.0139482 0
-0.0612936 -0.0183526 0
-0.0558804 -0.0219584 0
-0.0490711 -0.0243478 0
-0.0411437 -0.0251371 0
-0.0325208 -0.0240467 0
-0.0237664 -0.0209902 0
-0.0155506 -0.0161715 0
-0.00856428 -0.0101564 0
-0.00337517 -0.00386052 0
-0.000258006 0.00159488 0
0.000960275 0.00520077 0
0.000861855 0.00614598 0
0.000287463 0.00355767 0
-0.000851759 0.00383249 0
-0.00359368 0.00991262 0
-0.00796312 0.0142138 0
-0.0132652 0.017146 0
-0.0191385 0.0191949 0
-0.0254137 0.0206971 0
-0.0319996 0.0217989 0
-0.0388171 0.0224973 0
-0.045767 0.0227002 0
-0.0527207 0.02228 0
-0.0595204 0.0211109 0
-0.0659833 0.0190934 0
-0.0719074 0.016169 0
-0.0770775 0.0123296 0
-0.0812713 0.0076233 0
-0.0842671 0.00215795 0
-0.0858532 -0.00389862 0
-0.0858343 -0.0103363 0
-0.0840391 -0.0168492 0
-0.0803474 -0.0230147 0
-0.0747266 -0.0283303 0
-0.0672605 -0.0322513 0
-0.0581779 -0.0342436 0
-0.0478804 -0.0338605 0
-0.0369609 -0.0308503 0
-0.0261946 -0.0252937 0
-0.0164728 -0.0177424 0
-0.00864891 -0.00928751 0
-0.00329877 -0.00144544 0
-0.000473225 0.00419727 0
0.000373105 0.00640158 0
0.000202219 0.00404735 0
-0.00104826 0.00573251 0
-0.00436162 0.0140679 0
-0.00955196 0.0196184 0
-0.0157787 0.0232703 0
-0.022636 0.0258012 0
-0.0299509 0.0276808 0
-0.03764 0.0290904 0
-0.0456302 0.0300135 0
-0.0538236 0.0303273 0
-0.0620874 0.0298704 0
-0.0702538 0.0284865 0
-0.0781233 0.0260502 0
-0.0854697 0.0224828 0
-0.0920458 0.0177619 0
-0.0975906 0.0119294 0
-0.101839 0.00509566 0
-0.104531 -0.00255775 0
-0.105432 -0.0107955 0
-0.104323 -0.0192941 0
-0.101021 -0.0275634 0
-0.0954204 -0.0350026 0
-0.0875267 -0.0409387 0
-0.0774907 -0.0446749 0
-0.0656514 -0.045566 0
-0.0525804 -0.0431353 0
-0.0391093 -0.0372461 0
-0.0263054 -0.0283156 0
-0.0153385 -0.0175049 0
-0.00719351 -0.00672317 0
-0.00229004 0.00174597 0
-0.00021598 0.00593248 0
0.00011089 0.00436046 0
-0.00123509 0.00801586 0
-0.00508582 0.0189486 0
-0.0110433 0.0258854 0
-0.0181381 0.0303248 0
-0.0259297 0.0333954 0
-0.034246 0.0357177 0
-0.0430117 0.0375083 0
-0.0521588 0.0387329 0
-0.0615898 0.0392323 0
-0.0711664 0.0388059 0
-0.0807094 0.0372605 0
-0.0900016 0.034438 0
-0.0987927 0.0302325 0
-0.106805 0.0246011 0
-0.113745 0.0175743 0
-0.119308 0.00926216 0
-0.123199 -0.000140758 0
-0.125147 -0.0103635 0
-0.124901 -0.0210816 0
-0.122225 -0.0317542 0
-0.116941 -0.0416959 0
-0.108963 -0.0501167 0
-0.0983363 -0.0561599 0
-0.0852913 -0.0589654 0
-0.0703149 -0.0577832 0
-0.0542208 -0.0521634 0
-0.038185 -0.0422381 0
-0.0236752 -0.0290591 0
-0.0121687 -0.0148206 0
-0.00462261 -0.00260617 0
-0.000949134 0.00453709 0
4.25027e-06 0.0044756 0
-0.00139985 0.0106508 0
-0.00572281 0.0244874 0
-0.0123553 0.0329367 0
-0.0202206 0.0382337 0
-0.0288513 0.0419088 0
-0.0380766 0.0447459 0
-0.0478269 0.0469961 0
-0.0580372 0.0486025 0
-0.0686083 0.0493647 0
-0.0793959 0.0490376 0
-0.0902102 0.0473859 0
-0.100819 0.0442136 0
-0.110953 0.0393824 0
-0.120315 0.0328254 0
-0.128585 0.0245591 0
-0.135436 0.0146924 0
-0.140549 0.00343269 0
-0.143624 -0.00891343 0
-0.144391 -0.0220119 0
-0.142584 -0.0353062 0
-0.137962 -0.0480502 0
-0.13034 -0.0593619 0
-0.119636 -0.0682455 0
-0.105929 -0.073632 0
-0.0895518 -0.0744703 0
-0.0712069 -0.0699153 0
-0.0520746 -0.0596543 0
-0.0338376 -0.0443897 0
-0.0184782 -0.026356 0
-0.00767447 -0.00942049 0
-0.0019273 0.00193077 0
-0.000139306 0.00434054 0
-0.00152852 0.0135792 0
-0.0062241 0.0305775 0
-0.0133974 0.0406524 0
-0.0218899 0.0468759 0
-0.0312117 0.0512191 0
-0.0411902 0.0546393 0
-0.0517573 0.0574202 0
-0.0628477 0.0594792 0
-0.0743594 0.0605709 0
-0.0861428 0.0604025 0
-0.0980009 0.0586935 0
-0.109694 0.0552074 0
-0.120943 0.0497722 0
-0.131441 0.0422958 0
-0.140863 0.0327804 0
-0.148874 0.0213334 0
-0.155143 0.00817352 0
-0.159354 -0.00636773 0
-0.161236 -0.0219091 0
-0.160522 -0.0379292 0
-0.156918 -0.0536534 0
-0.150152 -0.0681467 0
-0.14 -0.0803162 0
-0.126354 -0.0889147 0
-0.109327 -0.0925926 0
-0.0894091 -0.0900554 0
-0.0676549 -0.0804007 0
-0.0458232 -0.063712 0
-0.0263244 -0.0418921 0
-0.0116703 -0.0193422 0
-0.00326328 -0.00230175 0
-0.000339725 0.00386151 0
-0.00160702 0.0167147 0
-0.00654139 0.0370719 0
-0.0140796 0.0488695 0
-0.02301 0.0560816 0
-0.0328215 0.0611468 0
-0.0433336 0.0652022 0
-0.0544744 0.0685651 0
-0.066175 0.0711253 0
-0.0783304 0.0725917 0
-0.0907882 0.0726229 0
-0.10335 0.0708932 0
-0.115776 0.0671262 0
-0.127791 0.0611174 0
-0.139093 0.0527517 0
-0.149366 0.0420187 0
-0.158285 0.0290249 0
-0.165533 0.0139993 0
-0.170808 -0.00270709 0
-0.173848 -0.0206476 0
-0.174392 -0.0393609 0
-0.172133 -0.0580847 0
-0.166729 -0.0758861 0
-0.157819 -0.0916378 0
-0.145084 -0.103974 0
-0.12836 -0.111285 0
-0.107829 -0.111812 0
-0.0842738 -0.103953 0
-0.059353 -0.0869118 0
-0.0357395 -0.0618046 0
-0.0167703 -0.0330529 0
-0.00506989 -0.00869853 0
-0.000628475 0.00289331 0
-0.00162327 0.019945 0
-0.00663314 0.0437859 0
-0.014324 0.0573846 0
-0.0234626 0.0656355 0
-0.0335159 0.0714577 0
-0.0442875 0.076175 0
-0.0556954 0.0801408 0
-0.0676648 0.0832197 0
-0.0800884 0.0850762 0
-0.0928151 0.0853229 0
-0.105651 0.0835915 0
-0.118367 0.0795693 0
-0.130702 0.0730236 0
-0.142374 0.0638207 0
-0.153094 0.051942 0
-0.162569 0.037496 0
-0.170517 0.0207239 0
-0.176671 0.00199776 0
-0.180795 -0.0181887 0
-0.182662 -0.039409 0
-0.181992 -0.0609659 0
-0.178405 -0.0819963 0
-0.171421 -0.101421 0
-0.160502 -0.117845 0
-0.145167 -0.129474 0
-0.125203 -0.134119 0
-0.100982 -0.129423 0
-0.0738591 -0.113486 0
-0.0465405 -0.0861626 0
-0.023046 -0.0511585 0
-0.00744659 -0.0178927 0
-0.00103266 0.00123218 0
-0.00156936 0.0231376 0
-0.00647122 0.050505 0
-0.0140765 0.0659616 0
-0.0231649 0.0752855 0
-0.0331791 0.0818752 0
-0.0438981 0.0872482 0
-0.0552239 0.0918012 0
-0.0670742 0.095379 0
-0.0793407 0.097607 0
-0.0918781 0.0980562 0
-0.104505 0.096321 0
-0.117008 0.0920585 0
-0.129153 0.0850141 0
-0.140692 0.0750426 0
-0.151377 0.0621245 0
-0.160965 0.0463769 0
-0.169231 0.0280564 0
-0.175966 0.00755485 0
-0.180979 -0.0146095 0
-0.18411 -0.0379897 0
-0.185151 -0.0620141 0
-0.183725 -0.0859617 0
-0.179265 -0.108899 0
-0.171034 -0.129517 0
-0.158216 -0.145954 0
-0.140137 -0.155681 0
-0.116627 -0.155592 0
-0.0885359 -0.14253 0
-0.0583287 -0.114644 0
-0.0304468 -0.0740536 0
-0.0104628 -0.0305809 0
-0.00157797 -0.00137844 0
-0.00144322 0.0261502 0
-0.00604649 0.0569975 0
-0.0133168 0.0743447 0
-0.0220831 0.0847572 0
-0.0317624 0.092097 0
-0.0421009 0.098084 0
-0.052979 0.103169 0
-0.0643055 0.107188 0
-0.0759741 0.109733 0
-0.0878493 0.110342 0
-0.0997671 0.108579 0
-0.111541 0.104077 0
-0.122968 0.0965678 0
-0.133843 0.0859037 0
-0.143969 0.072074 0
-0.153168 0.0552144 0
-0.161289 0.0356054 0
-0.168207 0.0136594 0
-0.173809 -0.0100993 0
-0.178026 -0.0351512 0
-0.180748 -0.0610903 0
-0.181654 -0.0874061 0
-0.180151 -0.113416 0
-0.175346 -0.138036 0
-0.166104 -0.159496 0
-0.151253 -0.17507 0
-0.129979 -0.180988 0
-0.102428 -0.172775 0
-0.0705306 -0.146504 0
-0.0387952 -0.101811 0
-0.0141468 -0.047456 0
-0.00228931 -0.00524572 0
-0.00124973 0.0288432 0
-0.00537227 0.0630304 0
-0.012064 0.0822738 0
-0.0202409 0.0937713 0
-0.0292951 0.101816 0
-0.0389325 0.108341 0
-0.0490074 0.113866 0
-0.0594197 0.11823 0
-0.0700676 0.121007 0
-0.0808309 0.121707 0
-0.0915697 0.119871 0
-0.102128 0.115117 0
-0.112343 0.10717 0
-0.122055 0.0958888 0
-0.131122 0.081282 0
-0.139434 0.0635171 0
-0.146924 0.0429131 0
-0.153569 0.0199157 0
-0.159382 -0.00494081 0
-0.16439 -0.0310846 0
-0.168586 -0.0582396 0
-0.171776 -0.086161 0
-0.173417 -0.114522 0
-0.172536 -0.142617 0
-0.167735 -0.168958 0
-0.157356 -0.190836 0
-0.139866 -0.203986 0
-0.114539 -0.202655 0
-0.0824678 -0.180593 0
-0.0478147 -0.13411 0
-0.0185066 -0.0691129 0
-0.00320901 -0.010744 0
-0.0010009 0.0310938 0
-0.00448533 0.0683867 0
-0.0103786 0.0895024 0
-0.0177214 0.102062 0
-0.025885 0.110743 0
-0.0345297 0.117696 0
-0.0434803 0.123536 0
-0.052628 0.128121 0
-0.0618798 0.131017 0
-0.071137 0.131718 0
-0.0802904 0.129752 0
-0.0892228 0.124727 0
-0.0978155 0.116368 0
-0.105959 0.104546 0
-0.113566 0.0892988 0
-0.120591 0.0708371 0
-0.127044 0.0495363 0
-0.133003 0.0258972 0
-0.1386 0.000486409 0
-0.143978 -0.026126 0
-0.149266 -0.0537142 0
-0.154441 -0.0823219 0
-0.159099 -0.112061 0
-0.162299 -0.142758 0
-0.162487 -0.173431 0
-0.157577 -0.201652 0
-0.145304 -0.222933 0
-0.123932 -0.230408 0
-0.0934343 -0.215408 0
-0.0571685 -0.170214 0
-0.0235464 -0.0959396 0
-0.00440414 -0.0183572 0
-0.000715207 0.0328099 0
-0.00344439 0.0728842 0
-0.00836084 0.0958146 0
-0.0146642 0.109396 0
-0.0217126 0.118621 0
-0.0291189 0.125869 0
-0.0366757 0.13187 0
-0.0442675 0.136526 0
-0.0518146 0.13941 0
-0.059247 0.140014 0
-0.0664948 0.137857 0
-0.0734881 0.132547 0
-0.0801604 0.123813 0
-0.0864566 0.111541 0
-0.092345 0.0957996 0
-0.0978339 0.07685 0
-0.102992 0.0551349 0
-0.107965 0.0312309 0
-0.112977 0.00576119 0
-0.118289 -0.0207104 0
-0.124176 -0.0479553 0
-0.13081 -0.0762717 0
-0.138019 -0.106244 0
-0.145039 -0.138355 0
-0.150321 -0.172364 0
-0.151491 -0.206458 0
-0.145601 -0.23629 0
-0.129827 -0.254198 0
-0.102767 -0.249176 0
-0.0665007 -0.208977 0
-0.0292733 -0.128026 0
-0.00596248 -0.0287238 0
-0.000416224 0.0339413 0
-0.00232695 0.0763927 0
-0.00614591 0.101042 0
-0.0112575 0.115584 0
-0.0170194 0.125243 0
-0.0229979 0.132631 0
-0.0289538 0.13862 0
-0.0347668 0.14318 0
-0.0403761 0.145912 0
-0.0457475 0.146316 0
-0.0508598 0.143916 0
-0.0556999 0.138322 0
-0.0602637 0.129273 0
-0.0645589 0.116672 0
-0.0686123 0.100611 0
-0.072481 0.0813962 0
-0.0762689 0.0595345 0
-0.0801494 0.0356848 0
-0.0843831 0.0105531 0
-0.089306 -0.015267 0
-0.0953061 -0.0415125 0
-0.102745 -0.0686409 0
-0.111748 -0.0976628 0
-0.121888 -0.129776 0
-0.131847 -0.1657 0
-0.139187 -0.204612 0
-0.140426 -0.242788 0
-0.131656 -0.272246 0
-0.109892 -0.279952 0
-0.0754651 -0.248894 0
-0.035691 -0.165111 0
-0.00797741 -0.0426637 0
-0.000131117 0.0344887 0
-0.00122536 0.0788503 0
-0.00389842 0.105076 0
-0.00773073 0.120494 0
-0.0120944 0.130459 0
-0.0165161 0.137816 0
-0.0207279 0.143604 0
-0.0246085 0.14789 0
-0.0281211 0.150324 0
-0.031274 0.150429 0
-0.0341022 0.147744 0
-0.0366583 0.141891 0
-0.0390093 0.13262 0
-0.0412361 0.119847 0
-0.0434332 0.103686 0
-0.0457116 0.0844683 0
-0.048205 0.0627437 0
-0.0510844 0.0392353 0
-0.0545837 0.0147355 0
-0.0590296 -0.0100806 0
-0.0648372 -0.0348913 0
-0.0724858 -0.0601742 0
-0.0823946 -0.0872181 0
-0.0946017 -0.117875 0
-0.108288 -0.153956 0
-0.121278 -0.196026 0
-0.129835 -0.241577 0
-0.129084 -0.282977 0
-0.114342 -0.305727 0
-0.0837311 -0.288157 0
-0.0427844 -0.206569 0
-0.0105313 -0.0611724 0
0.000109592 0.0345102 0
-0.000245149 0.0802778 0
-0.00180841 0.107885 0
-0.00434659 0.124056 0
-0.00726173 0.134176 0
-0.0100546 0.141313 0
-0.0124375 0.146701 0
-0.0142943 0.150531 0
-0.0156173 0.152519 0
-0.0164622 0.152231 0
-0.0169246 0.149232 0
-0.0171275 0.143161 0
-0.0172144 0.133787 0
-0.0173457 0.121038 0
-0.0176931 0.10504 0
-0.0184343 0.0861343 0
-0.0197471 0.0648839 0
-0.0218075 0.0420348 0
-0.0247994 0.0184273 0
-0.0289482 -0.00517763 0
-0.0345686 -0.0283661 0
-0.0421185 -0.0515008 0
-0.0521892 -0.075912 0
-0.0652945 -0.103868 0
-0.0813413 -0.13823 0
-0.0988362 -0.181268 0
-0.114232 -0.232382 0
-0.121985 -0.285169 0
-0.115719 -0.324544 0
-0.090955 -0.324715 0
-0.0504949 -0.251417 0
-0.0136841 -0.0853878 0
0.000269495 0.0341311 0
0.000489044 0.080792 0
-9.47577e-05 0.109518 0
-0.00139851 0.126265 0
-0.00287085 0.136355 0
-0.00400823 0.143065 0
-0.00452101 0.147845 0
-0.00430976 0.151033 0
-0.0034017 0.152432 0
-0.00190267 0.151664 0
2.93052e-05 0.148329 0
0.00220004 0.142096 0
0.0043881 0.132751 0
0.00635282 0.12024 0
0.00784309 0.104695 0
0.00860838 0.0864552 0
0.00841302 0.0660712 0
0.0070521 0.0442689 0
0.00436409 0.0218732 0
0.000225933 -0.000336604 0
-0.0054894 -0.0218714 0
-0.0130342 -0.0429008 0
-0.022938 -0.0645376 0
-0.0360066 -0.089069 0
-0.0529206 -0.120069 0
-0.0732659 -0.161589 0
-0.0943049 -0.215626 0
-0.110369 -0.278108 0
-0.113623 -0.334617 0
-0.0967048 -0.356325 0
-0.0586753 -0.298297 0
-0.0174609 -0.116533 0
0.00032539 0.0335362 0
0.000856275 0.0806365 0
0.000992855 0.11012 0
0.000785138 0.127173 0
0.000711846 0.136992 0
0.00123521 0.143042 0
0.00261898 0.146997 0
0.00492973 0.149359 0
0.00809294 0.150035 0
0.0119432 0.148712 0
0.0162562 0.145036 0
0.0207664 0.138708 0
0.0251782 0.129539 0
0.0291763 0.117489 0
0.0324372 0.102694 0
0.0346446 0.0854828 0
0.0355102 0.0663733 0
0.034798 0.0460398 0
0.0323506 0.0252377 0
0.0281078 0.00467987 0
0.022091 -0.0151558 0
0.0142877 -0.0342683 0
0.00444062 -0.0534192 0
-0.00819655 -0.0744816 0
-0.0247788 -0.10116 0
-0.0460986 -0.138833 0
-0.0709159 -0.192526 0
-0.0942973 -0.261762 0
-0.107528 -0.334478 0
-0.100328 -0.380582 0
-0.0669974 -0.3454 0
-0.0218241 -0.155818 0
0.000234873 0.032976 0
0.000714075 0.0801867 0
0.00119774 0.10995 0
0.00186075 0.126889 0
0.00311178 0.136099 0
0.00530891 0.141215 0
0.00862955 0.14412 0
0.0130714 0.145483 0
0.018497 0.145322 0
0.0246774 0.143395 0
0.0313231 0.139395 0
0.0381027 0.133059 0
0.0446558 0.124223 0
0.0506046 0.112859 0
0.0555687 0.0990999 0
0.0591843 0.0832541 0
0.0611284 0.0657924 0
0.0611478 0.0473135 0
0.0590866 0.0284727 0
0.0549016 0.00987281 0
0.0486458 -0.00807619 0
0.0404088 -0.0253077 0
0.0301803 -0.0423042 0
0.0176656 -0.0604447 0
0.00192286 -0.0828716 0
-0.0187222 -0.115156 0
-0.0449931 -0.165114 0
-0.0738019 -0.236984 0
-0.0966504 -0.323177 0
-0.100759 -0.394974 0
-0.0747884 -0.390309 0
-0.0266144 -0.204256 0
-8.16927e-05 0.0328228 0
-0.000171585 0.0799505 0
0.000175817 0.109355 0
0.0014387 0.125558 0
0.00393545 0.133682 0
0.00784117 0.137528 0
0.0131687 0.139158 0
0.0197965 0.139375 0
0.0275015 0.138299 0
0.035987 0.135752 0
0.0449042 0.131475 0
0.0538671 0.125237 0
0.0624654 0.116894 0
0.0702771 0.106427 0
0.0768853 0.0939592 0
0.0818995 0.0797651 0
0.0849815 0.0642552 0
0.0858736 0.0479391 0
0.0844212 0.0313607 0
0.0805815 0.0150096 0
0.0744064 -0.000782171 0
0.0660037 -0.015962 0
0.0554594 -0.0308769 0
0.0427045 -0.0466024 0
0.0272847 -0.0655513 0
0.00798939 -0.0925359 0
-0.0173774 -0.136097 0
-0.0488457 -0.205724 0
-0.0798315 -0.300602 0
-0.0962713 -0.397001 0
-0.0807668 -0.429757 0
-0.0314389 -0.26231 0
-0.000757387 0.0336619 0
-0.00217508 0.0806191 0
-0.00257426 0.108738 0
-0.000961957 0.123299 0
0.00277939 0.129702 0
0.00850075 0.131881 0
0.0159648 0.132014 0
0.0248754 0.130981 0
0.0349017 0.128962 0
0.0456782 0.125827 0
0.0568078 0.121353 0
0.067867 0.115337 0
0.0784152 0.107648 0
0.0880077 0.0982688 0
0.0962131 0.0873038 0
0.102635 0.0749845 0
0.106937 0.0616517 0
0.108868 0.0477199 0
0.108278 0.0336222 0
0.105126 0.01974 0
0.099463 0.00632511 0
0.091395 -0.0065986 0
0.0810272 -0.0193282 0
0.0683779 -0.032747 0
0.0532164 -0.0488254 0
0.0348013 -0.0715514 0
0.0114893 -0.108402 0
-0.0192883 -0.171173 0
-0.0554947 -0.267961 0
-0.0842085 -0.384488 0
-0.0826456 -0.459337 0
-0.0354771 -0.329226 0
-0.00203598 0.0364552 0
-0.00588297 0.0830904 0
-0.00769825 0.108481 0
-0.00586621 0.120112 0
-0.000707418 0.12399 0
0.00709101 0.124074 0
0.0169215 0.122526 0
0.0282749 0.120204 0
0.0407032 0.117284 0
0.0537821 0.113649 0
0.0670843 0.109099 0
0.0801712 0.103445 0
0.092596 0.0965668 0
0.103915 0.0884385 0
0.113705 0.0791387 0
0.121584 0.0688486 0
0.127235 0.0578346 0
0.130425 0.0464164 0
0.131019 0.0349211 0
0.128985 0.023628 0
0.124377 0.0127072 0
0.117316 0.00214811 0
0.10793 -0.00832041 0
0.0962507 -0.0194263 0
0.0821005 -0.0328345 0
0.0649199 -0.0519467 0
0.043444 -0.0832191 0
0.0153718 -0.137506 0
-0.0216771 -0.228373 0
-0.0607612 -0.356279 0
-0.0765762 -0.473295 0
-0.0371551 -0.401858 0
-0.00436442 0.0428556 0
-0.012194 0.0883666 0
-0.0158891 0.108716 0
-0.0135444 0.115701 0
-0.00643345 0.116131 0
0.00395739 0.113743 0
0.0165517 0.110432 0
0.0306127 0.106884 0
0.0455982 0.10319 0
0.0610539 0.0992084 0
0.076553 0.0947386 0
0.0916706 0.0896006 0
0.105982 0.0836751 0
0.11907 0.0769226 0
0.130546 0.0693894 0
0.140062 0.0612021 0
0.147341 0.0525515 0
0.152185 0.0436658 0
0.154489 0.0347736 0
0.154237 0.0260614 0
0.151495 0.0176238 0
0.14638 0.00940732 0
0.139039 0.00114766 0
0.129556 -0.00773231 0
0.117743 -0.018565 0
0.103017 -0.0343096 0
0.084191 -0.0605543 0
0.0589945 -0.106903 0
0.0241396 -0.187073 0
-0.0209058 -0.313449 0
-0.0564478 -0.464767 0
-0.0336205 -0.472634 0
-0.00838802 0.0556081 0
-0.0219626 0.0970183 0
-0.0269291 0.108726 0
-0.0226501 0.109067 0
-0.0122382 0.105242 0
0.00178565 0.100218 0
0.0178882 0.0952604 0
0.0351793 0.0907035 0
0.0530954 0.0864694 0
0.0712106 0.0823581 0
0.0891443 0.0781562 0
0.106525 0.0736849 0
0.122983 0.0688216 0
0.13816 0.0635101 0
0.151726 0.057761 0
0.163394 0.0516454 0
0.172943 0.0452808 0
0.180225 0.0388105 0
0.185174 0.0323759 0
0.1878 0.0260847 0
0.18817 0.0199734 0
0.186382 0.0139612 0
0.182527 0.0077892 0
0.176676 0.000959524 0