# vtk DataFile Version 2.0
Lid-driven cavity
ASCII
DATASET STRUCTURED_POINTS
DIMENSIONS 32 32 1
ORIGIN 0.015625 0.015625 0
SPACING 0.03125 0.03125 1
POINT_DATA 1024
SCALARS pressure double 1
LOOKUP_TABLE default
0.012696
0.0100695
0.0125322
0.0218803
0.0384686
0.0621765
0.0927713
0.130005
0.173621
0.223334
0.278815
0.339671
0.40544
0.475575
0.549438
0.626292
0.705302
0.785548
0.866053
0.945736
1.02342
1.09786
1.16783
1.2321
1.28951
1.33902
1.37975
1.41101
1.43241
1.44403
1.44684
1.4436
0.0153203
0.0126598
0.0159914
0.02596
0.0428026
0.0665056
0.0969393
0.133918
0.177215
0.226562
0.281635
0.342049
0.407344
0.476978
0.550318
0.626632
0.705089
0.784765
0.864709
0.943846
1.02099
1.09493
1.1644
1.22821
1.2852
1.33436
1.37484
1.40604
1.42767
1.43993
1.44366
1.44037
0.0126104
0.00898701
0.0123456
0.0225702
0.0396224
0.063438
0.0939092
0.130883
0.174161
0.223494
0.278573
0.339028
0.404411
0.47419
0.547744
0.624347
0.703172
0.783285
0.863742
0.943451
1.02121
1.09576
1.16583
1.23019
1.28767
1.33723
1.37802
1.40945
1.43127
1.44364
1.44714
1.44265
0.00221171
-0.00222679
0.000938297
0.0112532
0.028492
0.0525204
0.0832199
0.12045
0.164032
0.213736
0.269273
0.33029
0.396356
0.466958
0.541486
0.619225
0.69935
0.78092
0.862959
0.944336
1.02381
1.10006
1.17178
1.23765
1.29644
1.34708
1.38868
1.42064
1.4427
1.45498
1.45799
1.45245
-0.0168528
-0.021847
-0.0188559
-0.00846404
0.00900642
0.033374
0.0645069
0.10227
0.146499
0.196983
0.253454
0.31558
0.382953
0.455077
0.53136
0.611098
0.693469
0.777522
0.862217
0.946368
1.02867
1.10772
1.18212
1.25044
1.31138
1.36375
1.40664
1.43942
1.46183
1.47402
1.47653
1.47021
-0.0450481
-0.0504347
-0.0475416
-0.0370101
-0.0192093
0.00565446
0.0374425
0.0760258
0.121253
0.172934
0.230823
0.294613
0.363921
0.438275
0.517102
0.599711
0.685283
0.772853
0.8613
0.949365
1.03565
1.11865
1.19682
1.26859
1.33252
1.38731
1.43197
1.46585
1.48874
1.50087
1.50293
1.49594
-0.082704
-0.0884158
-0.0855507
-0.0747908
-0.0565341
-0.0310003
0.00167147
0.041361
0.087933
0.141218
0.200998
0.266993
0.338851
0.416129
0.49828
0.58463
0.674364
0.7665
0.859833
0.953012
1.04452
1.13271
1.21584
1.29215
1.35999
1.41793
1.46487
1.50015
1.52364
1.53572
1.53728
1.52961
-0.130164
-0.136195
-0.133307
-0.122229
-0.103385
-0.0770057
-0.0432275
-0.00215894
0.0460836
0.101355
0.163468
0.232177
0.307166
0.388031
0.474259
0.565202
0.660055
0.757825
0.85723
0.956804
1.05489
1.14964
1.23906
1.32114
1.39397
1.45588
1.50564
1.54261
1.56676
1.57872
1.57969
1.57123
-0.187839
-0.194218
-0.191274
-0.179795
-0.16024
-0.13285
-0.0977595
-0.0550631
-0.0048561
0.0527448
0.117587
0.189466
0.268114
0.353175
0.444184
0.540534
0.641448
0.745933
0.852644
0.959987
1.06613
1.16899
1.26626
1.35556
1.43461
1.50144
1.55464
1.59356
1.61837
1.63006
1.63024
1.62081
-0.256228
-0.263
-0.25998
-0.248031
-0.227652
-0.199104
-0.162518
-0.117977
-0.0655537
-0.00533241
0.0625739
0.138011
0.220769
0.310555
0.406972
0.509479
0.617348
0.729612
0.844904
0.961484
1.07734
1.19007
1.297
1.39524
1.48202
1.55491
1.61224
1.65336
1.67874
1.68987
1.68893
1.67831
-0.335923
-0.343144
-0.340038
-0.327557
-0.306257
-0.276421
-0.238185
-0.19162
-0.136776
-0.0737051
-0.00247524
0.0768178
0.164033
0.258963
0.361301
0.470603
0.586229
0.707279
0.83242
0.959771
1.08713
1.21176
1.33048
1.43977
1.53615
1.61653
1.67883
1.72238
1.74808
1.75818
1.75565
1.74353
-0.42761
-0.435347
-0.432149
-0.419082
-0.396773
-0.365537
-0.325522
-0.276791
-0.219376
-0.153297
-0.0785743
0.0047609
0.0966514
0.196992
0.3056
0.422163
0.546183
0.676884
0.813055
0.952715
1.09349
1.23229
1.36532
1.48826
1.59661
1.68634
1.7547
1.80092
1.82651
1.83484
1.83005
1.81603
-0.532081
-0.540406
-0.537113
-0.523408
-0.500005
-0.467268
-0.425363
-0.374359
-0.314276
-0.245105
-0.166822
-0.0793887
0.0172302
0.123053
0.238049
0.362086
0.494868
0.635826
0.783961
0.937347
1.09346
1.24888
1.39916
1.53894
1.66237
1.76399
1.83995
1.88919
1.91404
1.9195
1.91146
1.89496
-0.65024
-0.659234
-0.655841
-0.641437
-0.616847
-0.582503
-0.538608
-0.485247
-0.422442
-0.350168
-0.268364
-0.176927
-0.0757212
0.0354067
0.156605
0.28797
0.429472
0.580847
0.741417
0.909587
1.08274
1.25723
1.42798
1.58844
1.73101
1.84815
1.93417
1.98722
2.01056
2.01158
1.99884
1.97896
-0.783124
-0.792878
-0.789368
-0.774179
-0.748283
-0.712202
-0.6662
-0.610401
-0.54485
-0.469526
-0.384345
-0.289154
-0.183725
-0.0677655
0.0590689
0.197134
0.346733
0.507998
0.680709
0.863927
1.05512
1.25068
1.44508
1.63059
1.79754
1.93552
2.03582
2.09471
2.11605
2.11053
2.09084
2.06608
-0.93193
-0.942545
-0.938877
-0.922774
-0.895396
-0.857393
-0.80912
-0.750772
-0.682448
-0.60416
-0.515834
-0.41729
-0.308233
-0.188248
-0.0568008
0.0867349
0.243027
0.412684
0.596079
0.793084
1.0019
1.21919
1.43949
1.65436
1.85207
2.01861
2.14059
2.2103
2.23069
2.21626
2.18612
2.15376
-1.09806
-1.10965
-1.10574
-1.08852
-1.05939
-1.01917
-0.968363
-0.907276
-0.8361
-0.754928
-0.663734
-0.56236
-0.450487
-0.327623
-0.19309
-0.0460262
0.114578
0.289811
0.480691
0.68793
0.911329
1.14815
1.39402
1.64095
1.87608
2.08169
2.23788
2.32932
2.35425
2.32963
2.2838
2.23885
-1.2832
-1.29589
-1.29159
-1.27292
-1.24159
-1.1987
-1.14493
-1.08076
-1.00653
-0.922476
-0.828673
-0.725049
-0.611335
-0.487044
-0.351447
-0.203561
-0.0421537
0.134224
0.327141
0.53815
0.768493
1.01771
1.2834
1.56048
1.83758
2.09475
2.30441
2.43864
2.48335
2.45217
2.38407
2.3176
-1.4894
-1.50333
-1.49839
-1.47773
-1.44355
-1.39725
-1.33982
-1.27197
-1.19428
-1.10716
-1.01088
-0.905544
-0.791018
-0.666948
-0.532713
-0.387415
-0.229861
-0.0585688
0.128229
0.332608
0.556974
0.803697
1.07431
1.37045
1.68726
2.00707
2.29582
2.508
2.60519
2.58364
2.48839
2.38556
-1.71928
-1.7346
-1.72857
-1.70511
-1.66701
-1.61619
-1.554
-1.48151
-1.39959
-1.30893
-1.21008
-1.10337
-0.988942
-0.86674
-0.736471
-0.597633
-0.449513
-0.291176
-0.121388
0.061683
0.261061
0.481628
0.729837
1.0192
1.35973
1.74487
2.14015
2.48049
2.68836
2.71741
2.59995
2.4393
-1.97622
-1.9931
-1.98527
-1.95769
-1.91408
-1.85703
-1.78844
-1.70981
-1.62242
-1.52731
-1.42535
-1.31723
-1.20348
-1.0845
-0.960598
-0.832067
-0.699258
-0.562636
-0.422632
-0.279002
-0.129352
0.0330628
0.220809
0.45837
0.78528
1.21972
1.74017
2.26794
2.67447
2.83515
2.72644
2.48439
-2.26478
-2.28337
-2.27256
-2.23886
-2.18731
-2.12149
-2.04406
-1.9571
-1.86235
-1.76127
-1.65511
-1.54497
-1.43186
-1.31679
-1.20093
-1.08577
-0.973379
-0.866577
-0.768869
-0.683439
-0.610573
-0.543218
-0.462165
-0.334627
-0.0848596
0.353404
0.99275
1.76023
2.47776
2.90521
2.88898
2.55526
-2.59134
-2.6117
-2.59595
-2.55297
-2.48981
-2.41151
-2.32175
-2.22334
-2.11856
-2.00927
-1.89711
-1.78358
-1.6702
-1.55869
-1.45125
-1.35087
-1.26182
-1.19013
-1.14367
-1.13101
-1.15782
-1.21989
-1.29403
-1.33236
-1.24309
-0.880479
-0.170422
0.85616
2.00032
2.8883
3.13704
2.74672
-2.96509
-2.9871
-2.96303
-2.90571
-2.82536
-2.7292
-2.62226
-2.50819
-2.38978
-2.26924
-2.1485
-2.02935
-1.91379
-1.80419
-1.70378
-1.61714
-1.55094
-1.51474
-1.52144
-1.58629
-1.72272
-1.93326
-2.19565
-2.44901
-2.58985
-2.40874
-1.72657
-0.483538
1.16784
2.75309
3.56424
3.25093
-3.39994
-3.42283
-3.38446
-3.30451
-3.19846
-3.0767
-2.94596
-2.81074
-2.67417
-2.53858
-2.40594
-2.27818
-2.15751
-2.04683
-1.95022
-1.87364
-1.82587
-1.81966
-1.87253
-2.00617
-2.24253
-2.59391
-3.04581
-3.53503
-3.93536
-4.03264
-3.51301
-2.17451
-0.0166258
2.50343
4.32203
4.39658
-3.91814
-3.9393
-3.87536
-3.75883
-3.61395
-3.45557
-3.2923
-3.12912
-2.96902
-2.81401
-2.66569
-2.52575
-2.39637
-2.28063
-2.18313
-2.11078
-2.07387
-2.08732
-2.17179
-2.35338
-2.66042
-3.11462
-3.71372
-4.40494
-5.05653
-5.44967
-5.22251
-3.96889
-1.41374
2.22076
5.63759
6.69802
-4.55782
-4.56914
-4.45702
-4.27962
-4.07554
-3.8652
-3.65832
-3.45923
-3.26978
-3.09081
-2.92301
-2.76734
-2.62555
-2.50055
-2.39706
-2.32241
-2.2876
-2.30856
-2.40706
-2.61067
-2.95043
-3.45313
-4.12601
-4.93236
-5.75978
-6.38925
-6.48803
-5.47689
-2.70325
2.12933
7.8546
10.9352
-5.39059
-5.36614
-5.15749
-4.87578
-4.58128
-4.29848
-4.03494
-3.79162
-3.5673
-3.36051
-3.17017
-2.99605
-2.83904
-2.70157
-2.5881
-2.50597
-2.46626
-2.48479
-2.58307
-2.78834
-3.13104
-3.6378
-4.31813
-5.14389
-6.0235
-6.77296
-7.06091
-6.26094
-3.35946
2.70853
11.5363
18.2963
-6.56758
-6.41835
-6.00331
-5.53949
-5.10925
-4.72964
-4.3968
-4.10272
-3.84019
-3.60387
-3.3901
-3.19693
-3.0242
-2.87363
-2.74916
-2.65772
-2.61006
-2.62159
-2.71304
-2.91
-3.2401
-3.72621
-4.37409
-5.15466
-5.98271
-6.69477
-6.97611
-6.10864
-2.74598
4.90079
17.7147
30.5942
-8.4501
-7.84216
-6.96695
-6.19272
-5.57478
-5.08102
-4.67556
-4.3327
-4.03573
-3.77379
-3.54029
-3.33159
-3.14644
-2.98584
-2.85333
-2.75556
-2.70298
-2.71056
-2.79793
-2.98842
-3.30574
-3.76687
-4.36997
-5.07723
-5.7937
-6.34283
-6.38175
-4.98911
-0.437453
9.91757
28.4776
50.3391
-11.9481
-9.55747
-7.72008
-6.51235
-5.70114
-5.12116
-4.67748
-4.3181
-4.0145
-3.75064
-3.51752
-3.31043
-3.12768
-2.97018
-2.84158
-2.74865
-2.70195
-2.71617
-2.80986
-3.00387
-3.31746
-3.76065
-4.32163
-4.94841
-5.52295
-5.82178
-5.37399
-2.95013
3.72464
18.5392
47.3152
89.6357
-20.9649
-9.86454
-6.47104
-5.25991
-4.68196
-4.31387
-4.03031
-3.78905
-3.57382
-3.37766
-3.19772
-3.03347
-2.88611
-2.75868
-2.6564
-2.58724
-2.56256
-2.59729
-2.70932
-2.91762
-3.23783
-3.674
-4.20513
-4.76395
-5.20157
-5.21786
-4.15437
-0.551302
8.34086
27.9153
70.9024
171.877
VECTORS velocity double
-1.76069e-05 1.76069e-05 0
-0.000158525 0.000123311 0
-0.000481895 0.000200059 0
-0.000922329 0.000240375 0
-0.00141881 0.000256101 0
-0.00193353 0.000258624 0
-0.00244706 0.000254903 0
-0.00295009 0.000248129 0
-0.00343747 0.000239251 0
-0.00390489 0.000228173 0
-0.00434747 0.000214403 0
-0.00475923 0.000197357 0
-0.00513306 0.000176469 0
-0.00546078 0.000151255 0
-0.00573341 0.000121373 0
-0.00594148 8.66956e-05 0
-0.00607556 4.73851e-05 0
-0.00612682 3.87459e-06 0
-0.00608712 -4.35688e-05 0
-0.00594953 -9.40234e-05 0
-0.00570961 -0.000145897 0
-0.00536642 -0.000197297 0
-0.00492305 -0.00024607 0
-0.00438718 -0.000289794 0
-0.00377166 -0.000325731 0
-0.00309531 -0.000350623 0
-0.00238439 -0.000360293 0
-0.00167499 -0.000349108 0
-0.00101617 -0.000309706 0
-0.000472209 -0.000234259 0
-0.000116938 -0.000121012 0
2.03725e-06 2.0371e-06 0
-0.00012931 0.000164523 0
-0.000595702 0.000583705 0
-0.00141325 0.000880587 0
-0.00245585 0.00104287 0
-0.00361626 0.00111049 0
-0.00482073 0.00112343 0
-0.00602488 0.00110777 0
-0.00720312 0.00107653 0
-0.00833919 0.00103431 0
-0.00942011 0.000981454 0
-0.0104329 0.000916542 0
-0.0113636 0.000837594 0
-0.0121961 0.000742631 0
-0.0129133 0.000629961 0
-0.0134964 0.00049843 0
-0.0139264 0.000347686 0
-0.0141844 0.000178433 0
-0.0142527 -7.54407e-06 0
-0.0141164 -0.000208194 0
-0.0137642 -0.000419183 0
-0.0131905 -0.000634373 0
-0.0123961 -0.000846409 0
-0.0113896 -0.00104682 0
-0.0101885 -0.00122601 0
-0.00882053 -0.00137299 0
-0.00732559 -0.00147466 0
-0.00575841 -0.00151435 0
-0.00419259 -0.00147028 0
-0.00272446 -0.00131548 0
-0.00147313 -0.00102377 0
-0.000567666 -0.000592239 0
-0.000108726 -0.000104652 0
-0.000222662 0.000516495 0
-0.000952924 0.00142839 0
-0.00214576 0.00204629 0
-0.00361475 0.00238876 0
-0.00522571 0.00253598 0
-0.00688836 0.00256506 0
-0.00854607 0.00252799 0
-0.0101637 0.00245218 0
-0.0117174 0.00234845 0
-0.0131879 0.00221869 0
-0.0145566 0.00206083 0
-0.015804 0.00187137 0
-0.0169093 0.00164667 0
-0.0178498 0.00138362 0
-0.0186021 0.00108017 0
-0.019142 0.000735854 0
-0.0194461 0.000352346 0
-0.0194929 -6.62947e-05 0
-0.0192648 -0.000513887 0
-0.0187501 -0.000980418 0
-0.0179438 -0.00145313 0
-0.0168492 -0.00191663 0
-0.0154793 -0.00235303 0
-0.0138583 -0.00274191 0
-0.0120235 -0.0030598 0
-0.0100275 -0.00327878 0
-0.00794095 -0.003364 0
-0.00585617 -0.00327124 0
-0.00389082 -0.002948 0
-0.0021874 -0.00234599 0
-0.000903958 -0.00145893 0
-0.00019374 -0.000407119 0
-0.000285643 0.0010248 0
-0.00120106 0.00256576 0
-0.00266097 0.00356165 0
-0.00442678 0.00410821 0
-0.00634214 0.00434285 0
-0.00830698 0.00438568 0
-0.010259 0.0043171 0
-0.0121586 0.00418035 0
-0.0139781 0.00399344 0
-0.0156944 0.00376048 0
-0.0172857 0.00347908 0
-0.0187296 0.00314446 0
-0.0200021 0.00275137 0
-0.021078 0.00229534 0
-0.0219308 0.00177348 0
-0.0225337 0.00118536 0
-0.0228606 0.000533905 0
-0.0228878 -0.000173856 0
-0.0225961 -0.000926105 0
-0.0219728 -0.00170631 0
-0.0210124 -0.00249389 0
-0.019719 -0.00326382 0
-0.0181081 -0.00398669 0
-0.0162086 -0.0046288 0
-0.0140648 -0.00515147 0
-0.0117387 -0.00550921 0
-0.00931233 -0.00564652 0
-0.00689086 -0.00549496 0
-0.00460524 -0.00497524 0
-0.00261296 -0.00401445 0
-0.00109356 -0.00259332 0
-0.000237825 -0.000838685 0
-0.000325069 0.00163551 0
-0.0013622 0.00390761 0
-0.00300405 0.00532156 0
-0.00497349 0.00608355 0
-0.00709569 0.00640506 0
-0.00926314 0.00645576 0
-0.0114106 0.00634648 0
-0.0134968 0.00613683 0
-0.0154926 0.00585219 0
-0.0173736 0.00549901 0
-0.0191164 0.00507475 0
-0.0206971 0.00457336 0
-0.0220901 0.00398802 0
-0.0232684 0.00331279 0
-0.0242034 0.00254383 0
-0.0248661 0.00168063 0
-0.0252279 0.000727345 0
-0.0252621 -0.000305859 0
-0.0249465 -0.00140137 0
-0.0242649 -0.00253604 0
-0.0232089 -0.00368054 0
-0.0217809 -0.00479858 0
-0.0199966 -0.0058471 0
-0.0178882 -0.00677633 0
-0.0155065 -0.00752941 0
-0.0129233 -0.00804053 0
-0.0102333 -0.0082316 0
-0.00755557 -0.00800908 0
-0.00503569 -0.00726663 0
-0.00284603 -0.00590499 0
-0.00118273 -0.00388547 0
-0.000254247 -0.00133076 0
-0.000350004 0.00231058 0
-0.00146773 0.00538739 0
-0.00323499 0.0072509 0
-0.00534811 0.00823677 0
-0.00761774 0.00864366 0
-0.00993032 0.00869719 0
-0.0122188 0.00854095 0
-0.0144417 0.00825147 0
-0.0165698 0.00786149 0
-0.0185788 0.00737968 0
-0.0204451 0.00680321 0
-0.022144 0.00612456 0
-0.0236493 0.00533508 0
-0.0249323 0.00442694 0
-0.0259624 0.00339484 0
-0.0267077 0.00223762 0
-0.0271357 0.000960084 0
-0.027215 -0.000425014 0
-0.0269177 -0.00189513 0
-0.0262209 -0.00342068 0
-0.0251102 -0.00496262 0
-0.0235832 -0.00647155 0
-0.0216539 -0.00788769 0
-0.0193567 -0.00914135 0
-0.0167498 -0.010153 0
-0.0139177 -0.0108322 0
-0.0109724 -0.0110753 0
-0.00805285 -0.0107626 0
-0.00532433 -0.00976148 0
-0.00297638 -0.00794775 0
-0.00121718 -0.00526521 0
-0.000255839 -0.00184084 0
-0.000367574 0.00302816 0
-0.00154385 0.00696382 0
-0.00340522 0.00930311 0
-0.00562917 0.0105216 0
-0.00801518 0.0110144 0
-0.0104449 0.0110687 0
-0.01285 0.0108631 0
-0.0151895 0.0104918 0
-0.0174354 0.00999512 0
-0.019564 0.00938362 0
-0.0215523 0.00865388 0
-0.0233759 0.0077965 0
-0.0250079 0.00680033 0
-0.0264181 0.00565488 0
-0.0275734 0.00435236 0
-0.0284378 0.00288977 0
-0.0289731 0.00127125 0
-0.0291408 -0.000489137 0
-0.0289039 -0.00236531 0
-0.0282295 -0.00432164 0
-0.0270934 -0.00630856 0
-0.0254848 -0.00826114 0
-0.0234134 -0.0100988 0
-0.0209148 -0.0117261 0
-0.0180562 -0.0130337 0
-0.0149396 -0.0139001 0
-0.0117018 -0.0141906 0
-0.00851083 -0.0137579 0
-0.00555958 -0.012446 0
-0.00305828 -0.0101125 0
-0.00122289 -0.00669503 0
-0.000249289 -0.00234597 0
-0.000382357 0.00377809 0
-0.00160827 0.00861608 0
-0.0035505 0.0114544 0
-0.00587156 0.0129153 0
-0.00836191 0.0134971 0
-0.0108993 0.013553 0
-0.0134149 0.0132994 0
-0.0158689 0.012849 0
-0.0182345 0.0122494 0
-0.0204899 0.0115133 0
-0.0226133 0.010636 0
-0.0245809 0.00960567 0
-0.0263656 0.00840779 0
-0.0279359 0.00702795 0
-0.0292556 0.00545428 0
-0.0302834 0.00368004 0
-0.0309737 0.00170664 0
-0.0312778 -0.000452734 0
-0.0311463 -0.00277014 0
-0.0305326 -0.00520494 0
-0.0293975 -0.00769651 0
-0.0277175 -0.0101617 0
-0.0254936 -0.0124936 0
-0.0227609 -0.0145626 0
-0.0195972 -0.0162195 0
-0.0161281 -0.0173 0
-0.0125259 -0.0176307 0
-0.00900045 -0.0170343 0
-0.00578417 -0.0153371 0
-0.00311341 -0.0123934 0
-0.00120786 -0.0081551 0
-0.000236055 -0.00283132 0
-0.000396881 0.00455733 0
-0.0016712 0.0103371 0
-0.00369213 0.0136966 0
-0.00610835 0.0154104 0
-0.00870226 0.0160863 0
-0.0113485 0.0161475 0
-0.0139782 0.0158503 0
-0.0165529 0.0153268 0
-0.0190483 0.0146326 0
-0.0214447 0.0137818 0
-0.0237223 0.0127685 0
-0.0258589 0.0115774 0
-0.0278277 0.0101896 0
-0.0295962 0.00858497 0
-0.0311249 0.0067456 0
-0.0323666 0.00465833 0
-0.0332668 0.00231879 0
-0.0337637 -0.000263878 0
-0.0337919 -0.00306226 0
-0.0332858 -0.0060327 0
-0.0321858 -0.00910385 0
-0.0304485 -0.0121716 0
-0.0280601 -0.015096 0
-0.0250511 -0.017702 0
-0.0215102 -0.0197847 0
-0.0175932 -0.0211207 0
-0.0135215 -0.0214838 0
-0.00956575 -0.0206624 0
-0.00601561 -0.0184755 0
-0.00314343 -0.014798 0
-0.00116863 -0.00963083 0
-0.000214322 -0.00328169 0
-0.000412337 0.00536655 0
-0.00173771 0.0121276 0
-0.00384108 0.0160304 0
-0.00635672 0.0180085 0
-0.00905913 0.0187846 0
-0.0118201 0.0188564 0
-0.0145713 0.0185222 0
-0.0172765 0.0179347 0
-0.0199139 0.0171576 0
-0.0224672 0.0162065 0
-0.0249197 0.0150739 0
-0.0272516 0.0137405 0
-0.0294376 0.0121813 0
-0.0314451 0.0103691 0
-0.0332321 0.00827702 0
-0.0347454 0.00588204 0
-0.0359202 0.00316997 0
-0.0366798 0.000141464 0
-0.0369385 -0.00318069 0
-0.0366061 -0.00675282 0
-0.0355948 -0.010495 0
-0.0338322 -0.0142802 0
-0.0312799 -0.017928 0
-0.0279556 -0.0212033 0
-0.0239556 -0.0238243 0
-0.019471 -0.0254827 0
-0.0147879 -0.0258766 0
-0.0102635 -0.0247498 0
-0.00627382 -0.0219278 0
-0.00314612 -0.0173455 0
-0.0010975 -0.0111067 0
-0.000180789 -0.0036768 0
-0.000429165 0.00620805 0
-0.00180987 0.0139921 0
-0.00400203 0.0184614 0
-0.00662407 0.0207152 0
-0.00944206 0.0215982 0
-0.0123251 0.0216869 0
-0.0152058 0.0213236 0
-0.0180504 0.020683 0
-0.0208411 0.0198375 0
-0.0235657 0.0188045 0
-0.026212 0.0175746 0
-0.0287641 0.0161238 0
-0.0312002 0.0144201 0
-0.0334892 0.0124269 0
-0.0355882 0.0101052 0
-0.0374391 0.00741814 0
-0.0389668 0.00433639 0
-0.0400781 0.000845979 0
-0.0406633 -0.00304133 0
-0.0406015 -0.00728649 0
-0.0397681 -0.011806 0
-0.0380496 -0.0164502 0
-0.0353689 -0.0209911 0
-0.0317163 -0.0251172 0
-0.0271843 -0.0284424 0
-0.0219966 -0.0305368 0
-0.016518 -0.0309842 0
-0.0112247 -0.0294599 0
-0.00662512 -0.025807 0
-0.00314044 -0.0200787 0
-0.000992857 -0.0125697 0
-0.00013289 -0.00399048 0
-0.000447469 0.00708468 0
-0.00188832 0.015937 0
-0.00417651 0.0209968 0
-0.00691261 0.0235379 0
-0.00985333 0.0245342 0
-0.012865 0.0246456 0
-0.0158812 0.0242617 0
-0.0188718 0.0235802 0
-0.0218236 0.0226829 0
-0.02473 0.0215901 0
-0.0275848 0.0202901 0
-0.0303785 0.0187542 0
-0.0330952 0.0169425 0
-0.0357084 0.0148067 0
-0.0381769 0.0122928 0
-0.0404404 0.00934502 0
-0.0424154 0.00591228 0
-0.0439921 0.00195801 0
-0.0450345 -0.00252571 0
-0.0453864 -0.00751213 0
-0.0448775 -0.0129226 0
-0.0433403 -0.0185893 0
-0.0406391 -0.0242338 0
-0.0367123 -0.0294539 0
-0.0316221 -0.033728 0
-0.0256057 -0.0364553 0
-0.0191065 -0.0370435 0
-0.0127543 -0.0350461 0
-0.00725848 -0.0303162 0
-0.00321165 -0.023101 0
-0.000877716 -0.014029 0
-7.27893e-05 -0.00419616 0
-0.000467281 0.00799943 0
-0.00197328 0.0179691 0
-0.00436498 0.0236446 0
-0.00722263 0.0264839 0
-0.0102922 0.0275986 0
-0.013437 0.0277376 0
-0.0165918 0.0273407 0
-0.0197306 0.0266306 0
-0.0228461 0.0256999 0
-0.0259387 0.0245721 0
-0.0290104 0.0232346 0
-0.032061 0.021654 0
-0.0350836 0.019782 0
-0.0380606 0.0175573 0
-0.0409576 0.0149076 0
-0.0437169 0.0117531 0
-0.0462512 0.00801346 0
-0.0484372 0.00361948 0
-0.0501135 -0.00146842 0
-0.051086 -0.00724502 0
-0.0511349 -0.0136498 0
-0.0500249 -0.0205094 0
-0.0475374 -0.0275024 0
-0.0435195 -0.03413 0
-0.0379538 -0.0397078 0
-0.0310414 -0.0434043 0
-0.0232763 -0.0443588 0
-0.0154615 -0.0418979 0
-0.00859619 -0.0358255 0
-0.00358232 -0.0266524 0
-0.000830419 -0.0155634 0
-1.40675e-05 -0.00428302 0
-0.000488745 0.00895546 0
-0.00206533 0.0200957 0
-0.00456836 0.0264128 0
-0.0075547 0.0295597 0
-0.010758 0.0307957 0
-0.0140375 0.0309648 0
-0.01733 0.0305608 0
-0.0206138 0.0298332 0
-0.0238886 0.0288875 0
-0.0271636 0.0277519 0
-0.0304513 0.0264142 0
-0.0337641 0.0248376 0
-0.0371088 0.0229658 0
-0.0404821 0.0207239 0
-0.0438632 0.0180191 0
-0.0472053 0.014743 0
-0.0504257 0.0107782 0
-0.0533968 0.00601187 0
-0.0559393 0.000357974 0
-0.0578246 -0.00621356 0
-0.0587814 -0.0136756 0
-0.0584976 -0.0218774 0
-0.0566394 -0.0304801 0
-0.0529071 -0.0389025 0
-0.0471262 -0.0462819 0
-0.039376 -0.0514927 0
-0.0301303 -0.0532813 0
-0.0203463 -0.0505741 0
-0.0113952 -0.0429656 0
-0.00469193 -0.0312295 0
-0.00102207 -0.0174081 0
1.01711e-05 -0.00428692 0
-0.000512279 0.00995648 0
-0.00216597 0.022325 0
-0.00478919 0.0293098 0
-0.00791145 0.0327713 0
-0.0112518 0.0341277 0
-0.0146651 0.0343256 0
-0.0180893 0.0339166 0
-0.0215083 0.0331802 0
-0.0249294 0.0322364 0
-0.0283722 0.0311207 0
-0.0318627 0.0298237 0
-0.035429 0.0283072 0
-0.039097 0.026509 0
-0.0428848 0.0243419 0
-0.0467948 0.0216922 0
-0.0508027 0.0184199 0
-0.0548452 0.0143642 0
-0.0588059 0.00935774 0
-0.0625039 0.0032526 0
-0.0656865 -0.00404034 0
-0.0680328 -0.0125456 0
-0.0691419 -0.0221821 0
-0.0685274 -0.032648 0
-0.0656722 -0.0433221 0
-0.0601482 -0.0531674 0
-0.0518013 -0.0607043 0
-0.0409733 -0.0641434 0
-0.0286957 -0.0617736 0
-0.0167316 -0.0526814 0
-0.00722881 -0.0377198 0
-0.00174005 -0.0200764 0
-5.70886e-05 -0.00433383 0
-0.000538738 0.0110075 0
-0.00227827 0.0246672 0
-0.0050328 0.0323453 0
-0.00829922 0.0361244 0
-0.0117792 0.0375949 0
-0.015322 0.0378145 0
-0.0188671 0.0373971 0
-0.0224037 0.0366553 0
-0.0259479 0.0357267 0
-0.0295312 0.0346567 0
-0.033195 0.033442 0
-0.0369869 0.032047 0
-0.0409574 0.0304077 0
-0.0451546 0.0284282 0
-0.0496155 0.0259768 0
-0.0543548 0.0228826 0
-0.059349 0.0189382 0
-0.0645174 0.0139128 0
-0.0697001 0.00757826 0
-0.0746342 -0.000249372 0
-0.0789449 -0.00967954 0
-0.082125 -0.0207591 0
-0.0834968 -0.0333137 0
-0.0822563 -0.046752 0
-0.0776322 -0.0598856 0
-0.0691297 -0.0708355 0
-0.0568282 -0.0771417 0
-0.041686 -0.0761951 0
-0.0257572 -0.0661529 0
-0.0120413 -0.047467 0
-0.00336986 -0.0244894 0
-0.000291343 -0.00468226 0
-0.000569639 0.0121159 0
-0.00240758 0.0271363 0
-0.00530867 0.0355318 0
-0.00872987 0.0396255 0
-0.0123521 0.041196 0
-0.0160176 0.0414217 0
-0.019667 0.0409844 0
-0.0232954 0.040233 0
-0.026928 0.0393258 0
-0.0306091 0.0383219 0
-0.034397 0.0372284 0
-0.0383621 0.0360176 0
-0.0425844 0.03463 0
-0.0471499 0.0329686 0
-0.0521437 0.0308911 0
-0.0576382 0.028202 0
-0.0636748 0.0246495 0
-0.0702366 0.0199318 0
-0.0772114 0.0137169 0
-0.0843434 0.00567816 0
-0.0911823 -0.00445741 0
-0.0970767 -0.0169068 0
-0.101136 -0.0317352 0
-0.102237 -0.0484699 0
-0.0992207 -0.0658079 0
-0.0911834 -0.081453 0
-0.0778201 -0.0921889 0
-0.0598158 -0.0942943 0
-0.0392678 -0.0845306 0
-0.0199194 -0.0621537 0
-0.0063329 -0.0320607 0
-0.000774396 -0.005748 0
-0.000607436 0.013293 0
-0.00256256 0.0297523 0
-0.00563209 0.0388865 0
-0.00922301 0.043283 0
-0.012991 0.0449287 0
-0.0167703 0.0451338 0
-0.0205024 0.0446538 0
-0.0241881 0.0438777 0
-0.0278619 0.0429876 0
-0.0315811 0.0420604 0
-0.0354217 0.0411183 0
-0.0394777 0.0401488 0
-0.043862 0.0391054 0
-0.048705 0.0379016 0
-0.0541506 0.0363975 0
-0.0603465 0.034386 0
-0.0674225 0.0315781 0
-0.0754521 0.0275946 0
-0.0843914 0.021968 0
-0.0939963 0.0141639 0
-0.103737 0.00363631 0
-0.112763 -0.0100798 0
-0.119958 -0.0273083 0
-0.123943 -0.0478113 0
-0.1232 -0.0702252 0
-0.116406 -0.0918665 0
-0.102776 -0.108769 0
-0.0824899 -0.116004 0
-0.0573181 -0.108541 0
-0.0313583 -0.0834517 0
-0.0110343 -0.0446731 0
-0.00160302 -0.00812542 0
-0.000655944 0.0145563 0
-0.00275648 0.0325445 0
-0.0060264 0.0424336 0
-0.00980865 0.047109 0
-0.0137285 0.0487906 0
-0.017611 0.0489337 0
-0.0213989 0.0483738 0
-0.0250988 0.0475434 0
-0.0287544 0.0466515 0
-0.032435 0.0457962 0
-0.0362326 0.0450207 0
-0.0402643 0.0443341 0
-0.0446744 0.0437146 0
-0.0496388 0.0430998 0
-0.0553643 0.0423705 0
-0.0620814 0.0413261 0
-0.0700202 0.0396528 0
-0.0793578 0.0368872 0
-0.0901302 0.0323871 0
-0.102113 0.0253329 0
-0.114707 0.014802 0
-0.126881 -4.49853e-05 0
-0.137299 -0.0197304 0
-0.144419 -0.0442851 0
-0.14651 -0.0724029 0
-0.14188 -0.101112 0
-0.129204 -0.12583 0
-0.107937 -0.140497 0
-0.079069 -0.138087 0
-0.0464197 -0.112515 0
-0.0178799 -0.0644736 0
-0.00295381 -0.0126823 0
-0.000720948 0.0159332 0
-0.00300918 0.0355564 0
-0.00652599 0.0462085 0
-0.0105307 0.0511211 0
-0.0146123 0.05278 0
-0.0185865 0.052801 0
-0.0223982 0.052106 0
-0.0260611 0.0511739 0
-0.0296273 0.0502427 0
-0.0331762 0.0494344 0
-0.0368129 0.0488168 0
-0.0406716 0.0484282 0
-0.0449219 0.0482809 0
-0.0497763 0.0483522 0
-0.0554951 0.0485623 0
-0.0623807 0.0487372 0
-0.0707523 0.048552 0
-0.0808824 0.0474556 0
-0.0928903 0.0445988 0
-0.106601 0.0388152 0
-0.121415 0.0287276 0
-0.136244 0.0130325 0
-0.149567 -0.00906725 0
-0.159764 -0.0376315 0
-0.165102 -0.0716275 0
-0.163643 -0.107977 0
-0.15354 -0.141745 0
-0.133338 -0.166052 0
-0.102791 -0.171947 0
-0.064633 -0.149461 0
-0.0272888 -0.0934113 0
-0.00516171 -0.0207978 0
-0.000811204 0.0174654 0
-0.00335004 0.0388513 0
-0.00718058 0.0502609 0
-0.0114514 0.0553442 0
-0.0157091 0.0568961 0
-0.0197618 0.0567118 0
-0.0235604 0.0558055 0
-0.0271271 0.054704 0
-0.0305226 0.0536744 0
-0.0338339 0.052863 0
-0.0371732 0.0523642 0
-0.0406827 0.0522489 0
-0.0445431 0.052571 0
-0.0489844 0.0533579 0
-0.0542929 0.0545839 0
-0.0608096 0.056118 0
-0.0689046 0.0576378 0
-0.0789155 0.0585109 0
-0.0910419 0.0576779 0
-0.105208 0.0536136 0
-0.120933 0.0444675 0
-0.137251 0.028439 0
-0.152739 0.00433781 0
-0.165726 -0.0278527 0
-0.174503 -0.0672913 0
-0.177172 -0.111102 0
-0.171491 -0.154404 0
-0.15503 -0.190055 0
-0.125886 -0.207635 0
-0.0848357 -0.192982 0
-0.0394902 -0.13258 0
-0.00864328 -0.0346028 0
-0.00094011 0.0192167 0
-0.00382271 0.0425215 0
-0.00806151 0.0546601 0
-0.0126571 0.0598113 0
-0.0171086 0.0611382 0
-0.0212233 0.0606371 0
-0.0249643 0.0594198 0
-0.0283672 0.0580594 0
-0.0315025 0.0568498 0
-0.0344618 0.0559583 0
-0.037357 0.0555035 0
-0.0403256 0.0555877 0
-0.0435397 0.0563068 0
-0.0472176 0.0577412 0
-0.0516322 0.0599237 0
-0.0571114 0.062774 0
-0.0640203 0.0659856 0
-0.0727159 0.0688695 0
-0.0834691 0.0701989 0
-0.0963614 0.0681514 0
-0.111172 0.0604645 0
-0.127276 0.0448639 0
-0.143583 0.0197087 0
-0.158525 -0.0152943 0
-0.170549 -0.0590492 0
-0.178012 -0.109212 0
-0.17854 -0.161448 0
-0.168818 -0.209193 0
-0.144999 -0.241459 0
-0.105034 -0.240175 0
-0.0541141 -0.181653 0
-0.0136226 -0.0568686 0
-0.0011287 0.0212855 0
-0.00449302 0.0466996 0
-0.00927121 0.059499 0
-0.0142653 0.0645621 0
-0.0189274 0.0655011 0
-0.0230769 0.0645385 0
-0.0267032 0.0628856 0
-0.0298635 0.0611569 0
-0.0326411 0.0596651 0
-0.03513 0.0585912 0
-0.0374343 0.0580701 0
-0.0396728 0.058228 0
-0.0419872 0.0591951 0
-0.0445527 0.0610963 0
-0.0475859 0.0640162 0
-0.051348 0.0679228 0
-0.0561396 0.0725374 0
-0.0622823 0.077156 0
-0.0700863 0.0804696 0
-0.0798 0.0804866 0
-0.0915367 0.0746762 0
-0.105172 0.0603918 0
-0.120213 0.0355286 0
-0.135691 -0.000694004 0
-0.150295 -0.0470221 0
-0.162643 -0.101427 0
-0.170685 -0.160663 0
-0.170531 -0.219853 0
-0.15632 -0.268829 0
-0.122459 -0.286631 0
-0.0699621 -0.238613 0
-0.0199356 -0.0904268 0
-0.00141124 0.0238254 0
-0.00546266 0.0515754 0
-0.0109573 0.064896 0
-0.0164333 0.0696352 0
-0.0213075 0.0699642 0
-0.0254402 0.0683576 0
-0.0288693 0.0661218 0
-0.0316879 0.0638998 0
-0.033998 0.0620098 0
-0.0358957 0.0606331 0
-0.0374707 0.0599075 0
-0.0388108 0.0599691 0
-0.0400091 0.0609667 0
-0.0411719 0.063053 0
-0.0424266 0.0663473 0
-0.0439286 0.0708558 0
-0.0458691 0.0763366 0
-0.0484861 0.0821166 0
-0.0520781 0.0869049 0
-0.0570118 0.0886986 0
-0.0637083 0.0848975 0
-0.0725877 0.0726851 0
-0.0839448 0.0496331 0
-0.0977228 0.0144575 0
-0.113224 -0.0320682 0
-0.129607 -0.0876494 0
-0.145472 -0.150535 0
-0.156835 -0.218771 0
-0.156117 -0.28484 0
-0.133835 -0.326763 0
-0.0851171 -0.299696 0
-0.0270625 -0.137425 0
-0.00184601 0.0270827 0
-0.00689297 0.0574165 0
-0.0133325 0.070989 0
-0.0193621 0.0750479 0
-0.0244044 0.074468 0
-0.0284126 0.0719948 0
-0.0315102 0.0690113 0
-0.0338469 0.0661656 0
-0.0355524 0.0637595 0
-0.0367265 0.0619552 0
-0.037441 0.0608749 0
-0.0377451 0.060646 0
-0.0376723 0.0614154 0
-0.0372472 0.063342 0
-0.0364935 0.0665592 0
-0.0354456 0.071098 0
-0.034169 0.0767583 0
-0.0327936 0.0829365 0
-0.0315619 0.0884452 0
-0.0308764 0.0914066 0
-0.0313316 0.0893413 0
-0.0337246 0.0795137 0
-0.0390291 0.0594662 0
-0.0482778 0.0276512 0
-0.0621713 -0.0158673 0
-0.080757 -0.0688811 0
-0.103251 -0.130945 0
-0.126265 -0.203984 0
-0.141403 -0.285207 0
-0.135697 -0.354384 0
-0.0970977 -0.359393 0
-0.0341963 -0.198684 0
-0.00253651 0.0314652 0
-0.00904541 0.0645899 0
-0.0166957 0.0779055 0
-0.0232811 0.0807464 0
-0.0283328 0.0788634 0
-0.03199 0.0752647 0
-0.034516 0.071365 0
-0.0361437 0.0677763 0
-0.0370414 0.0647521 0
-0.0373157 0.0624111 0
-0.0370208 0.0608386 0
-0.0361668 0.0601324 0
-0.0347276 0.060417 0
-0.0326474 0.0618352 0
-0.0298509 0.0645159 0
-0.026261 0.0685035 0
-0.0218286 0.0736438 0
-0.0165826 0.0794296 0
-0.0106985 0.0848363 0
-0.0045631 0.0881946 0
0.001173 0.0872723 0
0.00553643 0.0796122 0
0.00719805 0.0630106 0
0.00443031 0.0361233 0
-0.00496768 -0.00104796 0
-0.0226063 -0.047476 0
-0.0484728 -0.103989 0
-0.0802898 -0.176109 0
-0.110594 -0.26764 0
-0.124594 -0.363656 0
-0.102784 -0.410529 0
-0.0401764 -0.273056 0
-0.00367185 0.0376736 0
-0.0123412 0.0735598 0
-0.0214256 0.0856702 0
-0.0283518 0.0864933 0
-0.0329924 0.0828089 0
-0.0358247 0.0778087 0
-0.0373238 0.0728461 0
-0.0378319 0.0684309 0
-0.0375641 0.0647274 0
-0.0366372 0.0617833 0
-0.035092 0.0596262 0
-0.0329069 0.0583058 0
-0.0300082 0.0579057 0
-0.0262763 0.0585344 0
-0.0215575 0.0603014 0
-0.0156868 0.0632574 0
-0.00852493 0.0672957 0
-1.35752e-05 0.0720204 0
0.00975065 0.0765972 0
0.0204036 0.0796454 0
0.0312048 0.0792842 0
0.0409889 0.0734526 0
0.0481543 0.0603431 0
0.0507227 0.0389901 0
0.046545 0.00966089 0
0.0334608 -0.0274619 0
0.0100506 -0.0747264 0
-0.0238001 -0.139704 0
-0.0639401 -0.233601 0
-0.0970818 -0.350554 0
-0.0979994 -0.444524 0
-0.0432181 -0.356451 0
-0.00559144 0.0469369 0
-0.0173964 0.0847708 0
-0.0278006 0.0939477 0
-0.0342725 0.091614 0
-0.0375011 0.0855574 0
-0.0385261 0.0789175 0