# vtk DataFile Version 2.0
Lid-driven cavity
ASCII
DATASET STRUCTURED_POINTS
DIMENSIONS 32 32 1
ORIGIN 0.015625 0.015625 0
SPACING 0.03125 0.03125 1
POINT_DATA 1024
SCALARS pressure double 1
LOOKUP_TABLE default
14.6321
14.5983
14.5525
14.5123
14.4854
14.4748
14.4814
14.5065
14.5523
14.6214
14.7168
14.8407
14.994
15.1752
15.3803
15.6016
15.8283
16.0462
16.2392
16.3907
16.4865
16.5179
16.4835
16.3901
16.252
16.0887
15.9211
15.7673
15.6422
15.5572
15.5188
15.5237
14.6658
14.6304
14.5934
14.5633
14.5445
14.5391
14.5483
14.5738
14.6177
14.6827
14.7714
14.8859
15.027
15.1938
15.3826
15.5865
15.7955
15.9963
16.1739
16.3126
16.3992
16.4256
16.391
16.3033
16.1761
16.0279
15.8783
15.7429
15.6334
15.5582
15.5225
15.5285
14.7128
14.6633
14.625
14.5987
14.5842
14.5813
14.5906
14.6134
14.652
14.7092
14.788
14.8909
15.0196
15.1739
15.351
15.5454
15.7469
15.9423
16.1164
16.2531
16.3383
16.3632
16.3267
16.2367
16.1091
15.9626
15.8168
15.6878
15.5849
15.5145
15.4808
15.4888
14.7497
14.6816
14.6371
14.6101
14.596
14.5921
14.5976
14.6135
14.6422
14.687
14.7515
14.8392
14.9531
15.0944
15.2621
15.4517
15.6527
15.8517
16.0327
16.1781
16.272
16.3034
16.2693
16.177
16.0429
15.8892
15.7375
15.6042
15.4992
15.4273
15.3916
15.3969
14.7557
14.6683
14.6154
14.5847
14.5673
14.5579
14.5548
14.5583
14.5712
14.5971
14.6407
14.7071
14.8007
14.925
15.0809
15.2664
15.4705
15.6798
15.8777
16.0449
16.1623
16.2151
16.1965
16.111
15.9743
15.8103
15.6446
15.4981
15.3812
15.2996
15.2555
15.2529
14.711
14.6045
14.5425
14.5058
14.4813
14.4616
14.4437
14.4278
14.4166
14.4145
14.4275
14.4621
14.5252
14.6226
14.7583
14.9334
15.1393
15.3623
15.5866
15.7913
15.9535
16.0523
16.0743
16.0174
15.8935
15.726
15.5444
15.3756
15.2363
15.1347
15.0739
15.0579
14.5945
14.47
14.3986
14.3536
14.318
14.2822
14.242
14.1973
14.1507
14.1075
14.0747
14.061
14.0757
14.1282
14.2264
14.3758
14.5732
14.8074
15.0651
15.3248
15.5595
15.7403
15.8432
15.8544
15.7759
15.6262
15.4364
15.2414
15.0687
14.9343
14.8459
14.8098
14.3846
14.2433
14.1619
14.106
14.0543
13.995
13.9227
13.8367
13.7393
13.6362
13.5354
13.448
13.3867
13.3652
13.3969
13.4935
13.6597
13.892
14.1834
14.5142
14.8535
15.1633
15.4046
15.5454
15.5691
15.4808
15.3077
15.0917
14.8762
14.6938
14.5657
14.5011
14.0589
13.9019
13.8096
13.7392
13.665
13.5728
13.4558
13.3118
13.1425
12.9535
12.7539
12.5571
12.3799
12.242
12.1642
12.1663
12.2638
12.4654
12.7787
13.1894
13.665
14.158
14.6111
14.9669
15.1797
15.2282
15.1239
14.9106
14.6514
14.4073
14.2212
14.117
13.5953
13.4243
13.3192
13.2293
13.1243
12.9873
12.8093
12.586
12.3177
12.0091
11.6703
11.3171
10.9715
10.6605
10.4148
10.2654
10.2402
10.363
10.6686
11.1536
11.7883
12.5179
13.2658
13.9429
14.4632
14.7626
14.8186
14.6628
14.3752
14.0572
13.7935
13.6351
12.9743
12.7909
12.6705
12.5546
12.4085
12.2121
11.9533
11.6249
11.2247
10.7559
10.229
9.66263
9.08442
8.53063
8.0442
7.67115
7.45533
7.43222
7.67752
8.20956
9.00774
10.0145
11.1365
12.2514
13.2232
13.9273
14.2829
14.2843
14.0144
13.6222
13.2605
13.0263
12.1809
11.9868
11.8479
11.6984
11.4992
11.2267
10.8647
10.4024
9.83363
9.15957
8.3903
7.54727
6.66468
5.78947
4.97928
4.29812
3.80943
3.56711
3.67413
4.1994
5.13713
6.43489
7.98961
9.6494
11.2254
12.5179
13.3605
13.6742
13.5143
13.0701
12.5893
12.2528
11.207
11.0044
10.8431
10.6516
10.3867
10.0207
9.53283
8.90709
8.13297
7.20823
6.14216
4.95885
3.69945
2.42275
1.20313
0.125436
-0.723471
-1.26631
-1.38945
-0.949721
0.070398
1.63354
3.63882
5.91639
8.23082
10.3021
11.854
12.6916
12.7925
12.3566
11.743
11.2717
10.0534
9.84458
9.65752
9.4161
9.07376
8.59843
7.96411
7.14892
6.1369
4.92173
3.51121
1.93173
0.231484
-1.51829
-3.22525
-4.78168
-6.07414
-6.99679
-7.43844
-7.18238
-6.1696
-4.41295
-1.9963
0.91139
4.04651
7.05767
9.5469
11.1621
11.7371
11.4223
10.6816
10.0369
8.73116
8.51897
8.30361
8.00633
7.57767
6.98135
6.18577
5.16268
3.89001
2.35667
0.568421
-1.44658
-3.63337
-5.90837
-8.16106
-10.2602
-12.0646
-13.4378
-14.2621
-14.2917
-13.3989
-11.564
-8.83904
-5.3687
-1.41518
2.62566
6.24292
8.89942
10.2134
10.194
9.36245
8.49948
7.26147
7.04924
6.80508
6.44939
5.93066
5.20869
4.24631
3.00873
1.46742
-0.393843
-2.57191
-5.03739
-7.72927
-10.5523
-13.3787
-16.0546
-18.412
-20.2852
-21.531
-21.9255
-21.2712
-19.5021
-16.6283
-12.747
-8.08249
-3.03115
1.81827
5.7426
8.08308
8.5912
7.74716
6.61658
5.67421
5.46587
5.19523
4.7836
4.17822
3.33552
2.21306
0.769659
-1.02968
-3.2065
-5.76064
-8.66217
-11.845
-15.2035
-18.5944
-21.8434
-24.7583
-27.1467
-28.837
-29.6343
-29.3165
-27.7617
-24.931
-20.8582
-15.6942
-9.78095
-3.72361
1.60506
5.2375
6.54576
5.81563
4.36876
4.00518
3.80512
3.51391
3.05516
2.37551
1.42853
0.166946
-1.45643
-3.48283
-5.93916
-8.82855
-12.1212
-15.7473
-19.593
-23.5017
-27.2821
-30.7219
-33.6064
-35.7399
-36.9434
-37.0132
-35.7968
-33.1985
-29.1848
-23.8088
-17.3035
-10.2104
-3.47464
1.64387
4.03572
3.59478
1.79248
2.29216
2.10493
1.80316
1.31356
0.582269
-0.43987
-1.80461
-3.56478
-5.76757
-8.4451
-11.6041
-15.216
-19.2085
-23.462
-27.8102
-32.0486
-35.9495
-39.2814
-41.8314
-43.4202
-43.8819
-43.0736
-40.8576
-37.1359
-31.8593
-25.1123
-17.2888
-9.29475
-2.60631
1.13248
1.20508
-0.966309
0.570431
0.400283
0.102344
-0.393522
-1.14271
-2.19784
-3.61533
-5.45349
-7.76517
-10.5876
-13.9314
-17.7698
-22.0304
-26.5904
-31.2778
-35.8795
-40.1572
-43.868
-46.7874
-48.7293
-49.5581
-49.1613
-47.4098
-44.1492
-39.2445
-32.6201
-24.4531
-15.4815
-7.26053
-1.94831
-1.07941
-3.58119
-1.13303
-1.28154
-1.55669
-2.02509
-2.74668
-3.77988
-5.18697
-7.03197
-9.37315
-12.2525
-15.6846
-19.6453
-24.0638
-28.8171
-33.7318
-38.5914
-43.1522
-47.1643
-50.396
-52.6543
-53.8136
-53.793
-52.5031
-49.7842
-45.4336
-39.236
-31.1167
-21.5211
-11.898
-4.8088
-2.76952
-5.46499
-2.80546
-2.92944
-3.15435
-3.55063
-4.18671
-5.13112
-6.45456
-8.2275
-10.5133
-13.3578
-16.7791
-20.7559
-25.2204
-30.0524
-35.0809
-40.0913
-44.8401
-49.0756
-52.5609
-55.0968
-56.5505
-56.8595
-55.9717
-53.7798
-50.0507
-44.4679
-36.7102
-26.8337
-15.965
-6.86203
-3.11321
-5.68825
-4.44715
-4.54811
-4.69149
-4.95598
-5.4332
-6.2106
-7.3711
-8.99283
-11.1439
-13.8736
-17.2019
-21.1092
-25.5288
-30.3424
-35.3819
-40.4369
-45.2696
-49.6341
-53.2986
-56.0648
-57.786
-58.3856
-57.8253
-56.0601
-52.9135
-47.9956
-40.7781
-30.8704
-18.8502
-7.36732
-1.07342
-2.89799
-6.07656
-6.15661
-6.17893
-6.24009
-6.47168
-6.99439
-7.91059
-9.30766
-11.2573
-13.8093
-16.9828
-20.7572
-25.0648
-29.7881
-34.7613
-39.7788
-44.6095
-49.0161
-52.775
-55.6952
-57.6286
-58.484
-58.2023
-56.7427
-54.0214
-49.6912
-43.0356
-33.1975
-19.978
-5.50216
4.66623
4.77413
-7.74023
-7.79789
-7.63997
-7.4043
-7.28751
-7.46028
-8.05191
-9.15965
-10.8558
-13.1866
-16.1665
-19.77
-23.9267
-28.5178
-33.3794
-38.31
-43.0853
-47.4756
-51.2654
-54.27
-56.3458
-57.3934
-57.3401
-56.1124
-53.6106
-49.5875
-43.3554
-33.5135
-18.8585
-0.432406
15.6844
19.8443
-9.53757
-9.5601
-9.12081
-8.45672
-7.86843
-7.59169
-7.78642
-8.55634
-9.96827
-12.0589
-14.8324
-18.2553
-22.2513
-26.6992
-31.4355
-36.2627
-40.9622
-45.3107
-49.0984
-52.144
-54.3051
-55.4794
-55.5793
-54.503
-52.0898
-48.0456
-41.6818
-31.5492
-15.0049
8.71265
33.8469
45.7086
-11.6654
-11.6094
-10.7148
-9.42182
-8.20583
-7.38028
-7.12211
-7.52954
-8.65313
-10.5115
-13.0933
-16.3528
-20.2056
-24.5265
-29.1522
-33.8881
-38.5205
-42.8315
-46.6142
-49.6873
-51.9035
-53.1514
-53.3364
-52.3143
-49.8549
-45.523
-38.4554
-26.8485
-7.6102
23.1335
61.4927
87.0656
-14.5281
-14.2362
-12.5511
-10.3334
-8.2947
-6.82661
-6.08557
-6.13637
-6.99681
-8.65776
-11.0864
-14.222
-17.9704
-22.2018
-26.7521
-31.4293
-36.0238
-40.3217
-44.1177
-47.2269
-49.491
-50.7786
-50.9749
-49.922
-47.2716
-42.3851
-34.0119
-19.6708
4.96439
45.1605
102.008
150.598
-19.0646
-17.9831
-14.7985
-11.1871
-8.10549
-5.92223
-4.70664
-4.443
-5.09521
-6.61662
-8.94899
-12.0149
-15.7101
-19.8999
-24.4192
-29.0781
-33.6704
-37.985
-41.817
-44.9758
-47.2888
-48.5967
-48.7368
-47.5112
-44.5331
-38.7821
-28.3839
-9.7728
23.3483
79.1866
161.159
245.602
-27.6859
-23.7472
-17.4887
-11.7591
-7.42758
-4.53682
-2.91859
-2.43343
-2.96891
-4.4338
-6.74338
-9.80417
-13.5028
-17.7002
-22.2307
-26.906
-31.523
-35.8731
-39.7507
-42.9595
-45.3111
-46.6148
-46.6501
-45.1145
-41.5328
-34.5532
-21.1907
3.74643
49.419
128.835
251.361
382.35
-46.5947
-31.666
-19.2712
-10.7491
-5.20676
-1.85657
-0.127204
0.323214
-0.303278
-1.87576
-4.29117
-7.44752
-11.2281
-15.4937
-20.0808
-24.8049
-29.467
-33.8617
-37.7837
-41.0312
-43.4009
-44.669
-44.5498
-42.6123
-38.124
-29.3463
-11.9466
21.2875
83.3839
196.095
391.069
661.86
-99.6218
-32.0974
-10.1944
-1.60544
2.50175
4.52247
5.22042
4.88899
3.66452
1.62863
-1.14933
-4.59065
-8.5956
-13.0382
-17.766
-22.6042
-27.3618
-31.8394
-35.8343
-39.1421
-41.5477
-42.8
-42.5532
-40.2445
-34.8296
-23.9883
-2.65654
37.9077
113.872
257.007
543.485
1185.82
VECTORS velocity double
6.78045e-05 -6.78046e-05 0
0.000166136 -3.05276e-05 0
0.000141142 5.55223e-05 0
-5.24287e-05 0.000138048 0
-0.000395252 0.000204775 0
-0.000858535 0.000258508 0
-0.00142104 0.000304001 0
-0.00206813 0.00034309 0
-0.00278531 0.00037409 0
-0.00355217 0.000392767 0
-0.00433848 0.000393544 0
-0.00510259 0.000370568 0
-0.0057918 0.000318638 0
-0.00634461 0.000234173 0
-0.0066951 0.00011631 0
-0.00677957 -3.18314e-05 0
-0.00654591 -0.000201829 0
-0.00596365 -0.000380437 0
-0.00503356 -0.000549651 0
-0.00379607 -0.000687844 0
-0.0023356 -0.000772627 0
-0.000777819 -0.000785151 0
0.000722723 -0.000715391 0
0.00200564 -0.00056753 0
0.00293292 -0.000359751 0
0.00341631 -0.000123639 0
0.00343641 0.000103544 0
0.00304259 0.000290276 0
0.00233639 0.000415927 0
0.0014652 0.000455264 0
0.000638397 0.000371534 0
0.000133431 0.000133431 0
2.75083e-05 -0.000163118 0
-6.09746e-05 5.49359e-05 0
-0.000488588 0.000422667 0
-0.00129634 0.000772226 0
-0.00244469 0.00106177 0
-0.00387836 0.00129847 0
-0.00554762 0.0014958 0
-0.00740608 0.00165684 0
-0.00940084 0.00177227 0
-0.0114635 0.00182407 0
-0.0135053 0.00179038 0
-0.0154173 0.00164987 0
-0.0170743 0.00138553 0
-0.0183424 0.000988212 0
-0.0190899 0.000460248 0
-0.0192005 -0.000180729 0
-0.0185894 -0.000897687 0
-0.0172179 -0.00163838 0
-0.0151046 -0.00233504 0
-0.0123364 -0.00290811 0
-0.00907394 -0.00327534 0
-0.00554874 -0.00336541 0
-0.00204962 -0.00313479 0
0.00110523 -0.0025859 0
0.00361532 -0.00177876 0
0.00525392 -0.000826618 0
0.00591399 0.000126353 0
0.00563644 0.000938839 0
0.00459917 0.00151084 0
0.00309194 0.00173877 0
0.00151385 0.00149291 0
0.000382 0.000648862 0
-9.68815e-05 -9.37446e-05 0
-0.000585522 0.000562686 0
-0.00166224 0.00141925 0
-0.00328696 0.00220812 0
-0.005379 0.00286627 0
-0.00785902 0.00340767 0
-0.0106548 0.00385166 0
-0.0136914 0.00419599 0
-0.0168787 0.00441526 0
-0.0201045 0.00446948 0
-0.0232321 0.00431442 0
-0.0261049 0.00391064 0
-0.0285542 0.003231 0
-0.0304103 0.00226705 0
-0.0315161 0.00103471 0
-0.0317404 -0.000420372 0
-0.0309916 -0.00201796 0
-0.0292281 -0.00365312 0
-0.0264689 -0.00519274 0
-0.0228059 -0.00648164 0
-0.0184125 -0.00735766 0
-0.0135468 -0.00767404 0
-0.00854356 -0.0073285 0
-0.00379406 -0.00629654 0
0.000291954 -0.00466424 0
0.0033506 -0.00263838 0
0.00514702 -0.000518379 0
0.00563893 0.00136921 0
0.00499525 0.00276142 0
0.00356215 0.00342852 0
0.00183453 0.00310887 0
0.00048421 0.00151507 0
-0.000267771 0.000270908 0
-0.00128781 0.00170671 0
-0.00318391 0.00324805 0
-0.00578007 0.00460019 0
-0.00893223 0.0057184 0
-0.0125327 0.00663605 0
-0.0164896 0.00737596 0
-0.0207043 0.00792295 0
-0.0250573 0.00822864 0
-0.0294029 0.0082275 0
-0.0335722 0.00785327 0
-0.03738 0.0070524 0
-0.0406358 0.00579431 0
-0.0431552 0.00407924 0
-0.0447712 0.00194434 0
-0.0453453 -0.000531568 0
-0.044775 -0.00322593 0
-0.0429985 -0.00598511 0
-0.0400074 -0.0086111 0
-0.035864 -0.0108697 0
-0.0307168 -0.0125101 0
-0.0248101 -0.013294 0
-0.0184863 -0.0130356 0
-0.0121753 -0.01165 0
-0.00636517 -0.00920693 0
-0.00154735 -0.00597215 0
0.00187127 -0.00239965 0
0.00368913 0.000940699 0
0.00399972 0.00352302 0
0.00316 0.00493974 0
0.00172691 0.00475836 0
0.000471769 0.00247105 0
-0.0004705 0.00100918 0
-0.00211032 0.00362829 0
-0.00493905 0.0060513 0
-0.00861002 0.00806406 0
-0.0129032 0.0096999 0
-0.0176811 0.0110329 0
-0.0228354 0.0120903 0
-0.0282509 0.0128388 0
-0.0337883 0.0132032 0
-0.0392819 0.0130922 0
-0.0445446 0.0124205 0
-0.0493769 0.0111254 0
-0.0535774 0.0091776 0
-0.0569516 0.0065895 0
-0.0593213 0.00341975 0
-0.0605303 -0.000223783 0
-0.0604497 -0.00418464 0
-0.0589798 -0.00827276 0
-0.0560637 -0.0122307 0
-0.0517128 -0.0157444 0
-0.0460284 -0.018467 0
-0.0392193 -0.0200529 0
-0.031614 -0.0202059 0
-0.0236625 -0.0187422 0
-0.0159201 -0.0156673 0
-0.00900011 -0.0112496 0
-0.0034837 -0.00605725 0
0.000210293 -0.000913551 0
0.0019897 0.00328728 0
0.00216538 0.00583951 0
0.00135203 0.00610502 0
0.000394372 0.00333719 0
-0.000696804 0.00217648 0
-0.00301459 0.0064186 0
-0.00684121 0.00991635 0
-0.0116415 0.0126702 0
-0.0171174 0.0148629 0
-0.0231048 0.0166351 0
-0.0294843 0.018022 0
-0.0361315 0.0189699 0
-0.0428976 0.0193756 0
-0.0496073 0.019123 0
-0.0560652 0.0181102 0
-0.0620639 0.0162667 0
-0.0673918 0.0135646 0
-0.0718399 0.0100249 0
-0.0752078 0.00572197 0
-0.0773091 0.000784251 0
-0.0779757 -0.00460665 0
-0.0770612 -0.010235 0
-0.0744531 -0.0157926 0
-0.0701009 -0.0208857 0
-0.0640456 -0.0250654 0
-0.0564434 -0.0278657 0
-0.0475875 -0.0288544 0
-0.0379242 -0.0277084 0
-0.0280559 -0.0243117 0
-0.0187119 -0.0188691 0
-0.0106656 -0.0120005 0
-0.00458111 -0.00474872 0
-0.000816093 0.00157803 0
0.000778015 0.00577898 0
0.000835712 0.00692121 0
0.000291407 0.00402297 0
-0.000937511 0.0038108 0
-0.00396089 0.0101254 0
-0.00880437 0.0148796 0
-0.0147404 0.0184433 0
-0.0213994 0.0212248 0
-0.0285963 0.0234574 0
-0.0362068 0.0251897 0
-0.0441044 0.0263471 0
-0.0521379 0.0267979 0
-0.0601292 0.0264017 0
-0.067879 0.0250392 0
-0.075172 0.0226295 0
-0.0817828 0.0191404 0
-0.0874803 0.0145947 0
-0.0920335 0.00907337 0
-0.0952174 0.00271801 0
-0.0968213 -0.00426989 0
-0.096655 -0.0116526 0
-0.094553 -0.0190852 0
-0.0904006 -0.0260978 0
-0.0841694 -0.0321398 0
-0.0759458 -0.0366172 0
-0.0659608 -0.0389439 0
-0.0546229 -0.0386201 0
-0.0425442 -0.0353471 0
-0.0305416 -0.0291803 0
-0.0195811 -0.0206962 0
-0.0106237 -0.0110949 0
-0.0043624 -0.00210207 0
-0.000924847 0.00442742 0
0.00024339 0.00704684 0
0.000185331 0.00449971 0
-0.00118013 0.00592844 0
-0.00490091 0.014752 0
-0.0107315 0.0209271 0
-0.0177606 0.025361 0
-0.0255568 0.0287623 0
-0.0339214 0.0314814 0
-0.0427302 0.033585 0
-0.0518589 0.034978 0
-0.0611582 0.0354997 0
-0.0704505 0.0349836 0
-0.0795326 0.0332892 0
-0.0881797 0.0303195 0
-0.0961492 0.0260306 0
-0.103185 0.020438 0
-0.109024 0.0136224 0
-0.113404 0.00573297 0
-0.116074 -0.00301126 0
-0.116808 -0.0123432 0
-0.115401 -0.0219035 0
-0.111677 -0.0311563 0
-0.105532 -0.0394571 0
-0.0969676 -0.0460881 0
-0.086123 -0.0503025 0
-0.0733255 -0.0513968 0
-0.0591425 -0.0488321 0
-0.0444224 -0.0424179 0
-0.0302872 -0.0325543 0
-0.0180118 -0.0204696 0
-0.00872752 -0.00827298 0
-0.00299116 0.00142441 0
-0.000436366 0.00632681 0
7.81934e-05 0.00476323 0
-0.00140871 0.00851728 0
-0.00577714 0.0202523 0
-0.0125131 0.0279932 0
-0.0205404 0.0333512 0
-0.0293768 0.0374047 0
-0.038815 0.0406418 0
-0.0487333 0.0431517 0
-0.0590121 0.0448188 0
-0.0695057 0.0454519 0
-0.080037 0.0448551 0
-0.090399 0.0428619 0
-0.100357 0.0393522 0
-0.109653 0.034263 0
-0.118008 0.0275968 0
-0.125134 0.0194287 0
-0.13074 0.00991279 0
-0.134546 -0.000715634 0
-0.136301 -0.0121498 0
-0.135769 -0.0240359 0
-0.132727 -0.0357908 0
-0.126999 -0.0466952 0
-0.118488 -0.0559252 0
-0.107216 -0.0625819 0
-0.0933828 -0.0657484 0
-0.0774447 -0.0646017 0
-0.0602023 -0.0586107 0
-0.0428557 -0.0478433 0
-0.0269572 -0.0333545 0
-0.0141418 -0.0174877 0
-0.00556021 -0.00367878 0
-0.00125157 0.00456656 0
-4.20357e-05 0.00479939 0
-0.00160493 0.0115309 0
-0.0065263 0.0265285 0
-0.0140325 0.0359592 0
-0.0229095 0.0422896 0
-0.0326336 0.0470269 0
-0.0429907 0.0508148 0
-0.0538619 0.0537683 0
-0.0651321 0.0557512 0
-0.0766592 0.0565401 0
-0.0882672 0.0559062 0
-0.0997463 0.0536519 0
-0.110855 0.0496294 0
-0.121326 0.0437518 0
-0.130867 0.036005 0
-0.139177 0.0264566 0
-0.145951 0.0152645 0
-0.150893 0.00268065 0
-0.153735 -0.0109497 0
-0.154228 -0.0252748 0
-0.152124 -0.0396981 0
-0.147184 -0.0534555 0
-0.139211 -0.0656485 0
-0.128088 -0.0752542 0
-0.113842 -0.0811545 0
-0.0967544 -0.0822216 0
-0.0774804 -0.0775072 0
-0.0571867 -0.0665873 0
-0.0376042 -0.0500914 0
-0.0208576 -0.0303128 0
-0.00885728 -0.0114356 0
-0.00232146 0.00147893 0
-0.000200662 0.00455669 0
-0.00175004 0.0148859 0
-0.00708502 0.0334299 0
-0.0151748 0.0446538 0
-0.0247011 0.0519982 0
-0.0351048 0.0574462 0
-0.0461637 0.0618114 0
-0.0577596 0.0652388 0
-0.0697805 0.0675718 0
-0.0820874 0.0685534 0
-0.0945063 0.0679197 0
-0.106828 0.0654393 0
-0.118811 0.0609342 0
-0.130187 0.054293 0
-0.140666 0.0454846 0
-0.149948 0.0345695 0
-0.157732 0.021709 0
-0.163723 0.00716961 0
-0.167643 -0.00867728 0
-0.169253 -0.0254438 0
-0.168312 -0.0425747 0
-0.164532 -0.0592982 0
-0.157624 -0.0746869 0
-0.147321 -0.0876421 0
-0.133451 -0.0968825 0
-0.116047 -0.100985 0
-0.0955255 -0.098539 0
-0.0728851 -0.0884895 0
-0.0498871 -0.0707697 0
-0.0290436 -0.0472247 0
-0.0131019 -0.0224658 0
-0.00376409 -0.00336452 0
-0.000420389 0.00393564 0
-0.00182714 0.0184631 0
-0.007397 0.0407575 0
-0.0158389 0.0538579 0
-0.025768 0.0622495 0
-0.0365936 0.0684243 0
-0.0480808 0.0733793 0
-0.0601082 0.0772943 0
-0.0725649 0.079994 0
-0.0853147 0.081188 0
-0.0981875 0.0805768 0
-0.110979 0.0778958 0
-0.123456 0.0729376 0
-0.135359 0.0655686 0
-0.146415 0.0557438 0
-0.156342 0.0435194 0
-0.16486 0.0290613 0
-0.171701 0.0126487 0
-0.176607 -0.00532997 0
-0.179364 -0.0244239 0
-0.179745 -0.0441555 0
-0.177452 -0.0637902 0
-0.172124 -0.0824309 0
-0.163353 -0.0989717 0
-0.150742 -0.112035 0
-0.13403 -0.119948 0
-0.113298 -0.120831 0
-0.0892361 -0.1129 0
-0.0634543 -0.0951389 0
-0.0386708 -0.0684826 0
-0.0184229 -0.0373976 0
-0.0056875 -0.0105059 0
-0.000734735 0.00278051 0
-0.00182362 0.0221138 0
-0.00742004 0.0482731 0
-0.0159486 0.0633128 0
-0.0259995 0.0727745 0
-0.0369515 0.0796768 0
-0.0485506 0.085213 0
-0.0606675 0.0896049 0
-0.07319 0.0926625 0
-0.0859852 0.0940644 0
-0.0988894 0.0934775 0
-0.111709 0.0906064 0
-0.124224 0.0852189 0
-0.136198 0.0771644 0
-0.147384 0.06639 0
-0.157537 0.0529533 0
-0.166421 0.0370296 0
-0.173813 0.0189125 0
-0.179508 -0.000992239 0
-0.183326 -0.0221861 0
-0.185082 -0.0442571 0
-0.184505 -0.0665586 0
-0.181199 -0.0882959 0
-0.174634 -0.108443 0
-0.164188 -0.12562 0
-0.149272 -0.137989 0
-0.129549 -0.143245 0
-0.105267 -0.13883 0
-0.0776871 -0.122571 0
-0.0494958 -0.0940253 0
-0.0248493 -0.0567494 0
-0.00817461 -0.0205641 0
-0.00116719 0.000878591 0
-0.0017332 0.0256707 0
-0.00713213 0.0557116 0
-0.0154629 0.0727336 0
-0.0253349 0.0832767 0
-0.0360968 0.0908885 0
-0.0474682 0.0969718 0
-0.0593066 0.101801 0
-0.0714967 0.105179 0
-0.0839097 0.106756 0
-0.0963913 0.106171 0
-0.108763 0.103103 0
-0.120827 0.0973011 0
-0.132375 0.0886046 0
-0.143201 0.076962 0
-0.153108 0.0624415 0
-0.161918 0.0452357 0
-0.169478 0.0256582 0
-0.175654 0.00413233 0
-0.180325 -0.018821 0
-0.183375 -0.0428164 0
-0.184606 -0.0673456 0
-0.183628 -0.0917926 0
-0.179827 -0.115313 0
-0.172381 -0.136643 0
-0.160362 -0.153902 0
-0.14296 -0.164458 0
-0.119857 -0.165002 0
-0.0917693 -0.152067 0
-0.061081 -0.123409 0
-0.0322891 -0.0808044 0
-0.0112743 -0.0341986 0
-0.00174005 -0.00202864 0
-0.00155723 0.0289611 0
-0.00653538 0.0627982 0
-0.014382 0.0818243 0
-0.0237725 0.0934485 0
-0.0340263 0.101732 0
-0.0448294 0.108302 0
-0.056021 0.113501 0
-0.0674819 0.117131 0
-0.0790886 0.118824 0
-0.0907002 0.118197 0
-0.102158 0.114907 0
-0.113292 0.108694 0
-0.123928 0.0993967 0
-0.133906 0.0869734 0
-0.143084 0.0715148 0
-0.151354 0.0532433 0
-0.158645 0.0325018 0
-0.164914 0.00973281 0
-0.17012 -0.0145442 0
-0.174248 -0.0399153 0
-0.177208 -0.066056 0
-0.17867 -0.0925978 0
-0.177997 -0.118982 0
-0.174214 -0.144202 0
-0.16608 -0.166496 0
-0.152288 -0.183059 0
-0.131861 -0.18993 0
-0.104783 -0.182304 0
-0.0728483 -0.155794 0
-0.0405384 -0.109521 0
-0.0149968 -0.0520386 0
-0.00247551 -0.0062442 0
-0.00130514 0.0318234 0
-0.00565754 0.0692664 0
-0.0127504 0.0902956 0
-0.0213727 0.10299 0
-0.0308184 0.11189 0
-0.0407333 0.118862 0
-0.0509343 0.124333 0
-0.0612977 0.128122 0
-0.0717086 0.12985 0
-0.0820439 0.129117 0
-0.0921703 0.125571 0
-0.101949 0.118944 0
-0.111247 0.109082 0
-0.119947 0.0959654 0
-0.127964 0.0797175 0
-0.135258 0.0606049 0
-0.141842 0.0390158 0
-0.147777 0.0154225 0
-0.153141 -0.00966354 0
-0.158026 -0.0357836 0
-0.16246 -0.0627927 0
-0.166239 -0.09062 0
-0.168782 -0.119091 0
-0.169051 -0.147606 0
-0.165557 -0.174719 0
-0.156516 -0.19767 0
-0.140235 -0.212027 0
-0.115807 -0.211713 0
-0.0841499 -0.189978 0
-0.0493163 -0.142481 0
-0.0193411 -0.0745951 0
-0.00341518 -0.0121349 0
-0.000994017 0.0341226 0
-0.00455098 0.0748766 0
-0.0106549 0.0978822 0
-0.018255 0.111626 0
-0.0266276 0.121073 0
-0.0353737 0.128341 0
-0.0442845 0.133967 0
-0.0532326 0.1378 0
-0.0621158 0.139466 0
-0.070835 0.138556 0
-0.079289 0.134712 0
-0.0873781 0.12767 0
-0.0950109 0.117287 0
-0.102117 0.103567 0
-0.10866 0.0866763 0
-0.114659 0.0669382 0
-0.120197 0.0448047 0
-0.125429 0.0208012 0
-0.13056 -0.00454763 0
-0.135791 -0.0307836 0
-0.141279 -0.0578695 0
-0.146996 -0.0860477 0
-0.152516 -0.115601 0
-0.156859 -0.146484 0
-0.158406 -0.177788 0
-0.154974 -0.207075 0
-0.144151 -0.229725 0
-0.124017 -0.238576 0
-0.0943401 -0.224449 0
-0.0583032 -0.178881 0
-0.0243076 -0.102166 0
-0.0046236 -0.0201737 0
-0.000647294 0.0357639 0
-0.00328961 0.0794346 0
-0.00822016 0.104359 0
-0.0145917 0.119121 0
-0.0216746 0.129033 0
-0.0290234 0.136476 0
-0.0364016 0.142121 0
-0.0436796 0.145872 0
-0.0507731 0.147371 0
-0.0576146 0.146212 0
-0.0641442 0.14204 0
-0.070309 0.134596 0
-0.0760679 0.123752 0
-0.0813994 0.109539 0
-0.0863147 0.0921632 0
-0.0908738 0.072009 0
-0.0952054 0.0496035 0
-0.0995197 0.0255492 0
-0.104102 0.000417398 0
-0.109259 -0.0253609 0
-0.115281 -0.0517818 0
-0.122341 -0.0793583 0
-0.130262 -0.108849 0
-0.138276 -0.140879 0
-0.144811 -0.17531 0
-0.147433 -0.210363 0
-0.143079 -0.241613 0
-0.128753 -0.261148 0
-0.102834 -0.257473 0
-0.0671775 -0.21755 0
-0.0299052 -0.134764 0
-0.0061838 -0.0309811 0
-0.000293105 0.0367043 0
-0.00196475 0.0828082 0
-0.00560325 0.109554 0
-0.0105985 0.125292 0
-0.016232 0.135578 0
-0.0220142 0.143062 0
-0.0276798 0.148579 0
-0.0330996 0.152113 0
-0.0382129 0.153338 0
-0.0429917 0.151866 0
-0.0474268 0.147351 0
-0.0515226 0.139546 0
-0.0552981 0.128337 0
-0.0587893 0.113777 0
-0.0620561 0.0961071 0
-0.0651934 0.0757615 0
-0.0683466 0.0533358 0
-0.0717303 0.0295149 0
-0.0756416 0.00494546 0
-0.0804401 -0.019934 0
-0.086518 -0.0451087 0
-0.0942336 -0.0712555 0
-0.103721 -0.0995435 0
-0.114585 -0.131308 0
-0.125539 -0.167392 0
-0.134138 -0.20706 0
-0.136832 -0.246577 0
-0.129567 -0.277776 0
-0.109145 -0.287185 0
-0.0756387 -0.257002 0
-0.036145 -0.172078 0
-0.00818426 -0.0453491 0
3.62913e-05 0.0369611 0
-0.000682389 0.0849417 0
-0.00298768 0.113364 0
-0.00652637 0.130016 0
-0.010612 0.140574 0
-0.0147173 0.147954 0
-0.0185509 0.153186 0
-0.0219871 0.156361 0
-0.0249939 0.157209 0
-0.0275903 0.155369 0
-0.0298253 0.150517 0
-0.03177 0.14242 0
-0.0335127 0.130981 0
-0.0351565 0.116268 0
-0.0368192 0.0985454 0
-0.0386353 0.0782766 0
-0.04076 0.0560987 0
-0.0433797 0.0327554 0
-0.0467346 0.00897128 0
-0.0511464 -0.0147495 0
-0.0570168 -0.0383449 0
-0.0648119 -0.0625086 0
-0.0749637 -0.0886509 0
-0.0875664 -0.118734 0
-0.101881 -0.154697 0
-0.115796 -0.197241 0
-0.125566 -0.24393 0
-0.126221 -0.287032 0
-0.112883 -0.311687 0
-0.083405 -0.295484 0
-0.0430255 -0.21347 0
-0.0107054 -0.0642388 0
0.000299052 0.0366258 0
0.000430675 0.0858641 0
-0.000582904 0.115761 0
-0.0026564 0.133232 0
-0.00515461 0.143942 0
-0.00752607 0.151062 0
-0.00946026 0.155845 0
-0.0108397 0.158518 0
-0.0116664 0.158886 0
-0.012011 0.156633 0
-0.0119862 0.151464 0
-0.011734 0.143166 0
-0.0114177 0.131661 0
-0.0112139 0.117028 0
-0.0113067 0.0995411 0
-0.0118836 0.0796739 0
-0.0131255 0.0580681 0
-0.0151979 0.035478 0
-0.0182613 0.012667 0
-0.0225144 -0.00978033 0
-0.0282411 -0.0317171 0
-0.0358712 -0.0537111 0
-0.0460015 -0.0771661 0
-0.059201 -0.104417 0
-0.0754857 -0.138415 0
-0.0934886 -0.181607 0
-0.109735 -0.233549 0
-0.11865 -0.287844 0
-0.113711 -0.329153 0
-0.0901776 -0.331031 0
-0.0505072 -0.257973 0
-0.0138093 -0.0887535 0
0.0004755 0.0358512 0
0.00125214 0.0857304 0
0.00136189 0.116798 0
0.000693737 0.134936 0
-0.000222291 0.145652 0
-0.000840396 0.152342 0
-0.000842521 0.156502 0
-0.000127346 0.158525 0
0.00126403 0.158314 0
0.00320472 0.155609 0
0.00551501 0.150153 0
0.00798069 0.141759 0
0.0103641 0.130368 0
0.0124128 0.116068 0
0.0138712 0.0991352 0
0.0144958 0.0800321 0
0.0140714 0.0593761 0
0.0124268 0.0378869 0
0.00944826 0.0163001 0
0.00507048 -0.00478253 0
-0.000799148 -0.0251187 0
-0.00840862 -0.04507 0
-0.0182873 -0.0657981 0
-0.0312582 -0.0896147 0
-0.0480926 -0.120098 0
-0.068537 -0.161476 0
-0.0900032 -0.215967 0
-0.106883 -0.27963 0
-0.111263 -0.337925 0
-0.0955578 -0.361498 0
-0.058462 -0.304272 0
-0.0175257 -0.120089 0
0.000542767 0.034833 0
0.00168525 0.0848295 0
0.0026233 0.116651 0
0.00318784 0.135186 0
0.00380602 0.145699 0
0.00495774 0.151761 0
0.00692487 0.155118 0
0.00977177 0.156347 0
0.0134069 0.155465 0
0.0176416 0.152282 0
0.0222284 0.146582 0
0.0268823 0.13821 0
0.0312952 0.127121 0
0.0351472 0.113414 0
0.0381224 0.0973556 0
0.0399284 0.079381 0
0.0403184 0.0600617 0
0.0391113 0.040053 0
0.0362117 0.0200121 0
0.0316159 0.000479151 0
0.0253729 -0.0182677 0
0.0174636 -0.0364022 0
0.00762982 -0.0547535 0
-0.00485643 -0.0752022 0
-0.0211921 -0.10134 0
-0.0423069 -0.138675 0
-0.067153 -0.192456 0
-0.0909562 -0.262457 0
-0.105021 -0.336653 0
-0.098912 -0.384585 0
-0.0665771 -0.350616 0
-0.0218222 -0.159436 0
0.000459902 0.0338303 0
0.00158549 0.0835641 0
0.00294403 0.11562 0
0.00448595 0.134111 0
0.00654844 0.144094 0
0.00948242 0.149281 0
0.0134681 0.151645 0
0.0184923 0.151949 0
0.0243953 0.150326 0
0.030922 0.14666 0
0.0377591 0.140781 0
0.0445583 0.132559 0
0.050952 0.121966 0
0.0565676 0.109102 0
0.0610455 0.094215 0
0.0640611 0.0776999 0
0.0653488 0.0600651 0
0.0647236 0.0418819 0
0.062097 0.0237094 0
0.0574763 0.00599834 0
0.0509394 -0.0110071 0
0.0425638 -0.027378 0
0.0323083 -0.0436884 0
0.0198636 -0.0613363 0
0.00434002 -0.0833469 0
-0.0159661 -0.115247 0
-0.0419786 -0.165025 0
-0.0708384 -0.237225 0
-0.094182 -0.324476 0
-0.0991777 -0.397875 0
-0.0741884 -0.39465 0
-0.0265435 -0.207802 0
0.00014904 0.0332214 0
0.00071863 0.0824779 0
0.00197311 0.114094 0
0.00418887 0.13188 0
0.00760392 0.140847 0
0.0123576 0.14484 0
0.0184447 0.146013 0
0.0257204 0.145281 0
0.0339318 0.14288 0
0.0427529 0.138759 0
0.0518113 0.132786 0
0.0607079 0.124857 0
0.069032 0.11495 0
0.0763768 0.103157 0
0.0823581 0.0897003 0
0.0866364 0.0749207 0
0.0889405 0.0592526 0
0.0890857 0.0431745 0
0.0869846 0.0271447 0
0.0826411 0.0115273 0
0.0761237 -0.00348175 0
0.0675305 -0.0179345 0
0.056918 -0.0322638 0
0.0441838 -0.0475822 0
0.0288718 -0.0662655 0
0.00984119 -0.0929919 0
-0.0151552 -0.136271 0
-0.0464023 -0.205872 0
-0.0775507 -0.301337 0
-0.0946212 -0.398947 0
-0.0800172 -0.433171 0
-0.0312988 -0.265644 0
-0.00054045 0.0336128 0
-0.00131654 0.082293 0
-0.000793993 0.112501 0
0.00181882 0.128644 0
0.00656234 0.135925 0
0.0132457 0.138325 0
0.0215796 0.138107 0
0.0312262 0.136264 0
0.0418155 0.133095 0
0.0529493 0.128589 0
0.0642075 0.12264 0
0.0751578 0.115157 0
0.0853666 0.106117 0
0.0944135 0.095598 0
0.101909 0.0837828 0
0.107515 0.0709535 0
0.110967 0.0574643 0
0.112085 0.0436995 0
0.110784 0.0300213 0
0.107066 0.0167123 0
0.100998 0.00391868 0
0.0926787 -0.00842257 0
0.082189 -0.0206734 0
0.0695114 -0.0337608 0
0.0543898 -0.0496533 0
0.0360915 -0.0722752 0
0.0130486 -0.108949 0
-0.0173989 -0.1715 0
-0.0535046 -0.268455 0
-0.0825745 -0.385689 0
-0.0817776 -0.46183 0
-0.0352689 -0.332212 0
-0.00185089 0.0360041 0
-0.00512591 0.0839528 0
-0.006057 0.11125 0
-0.00318453 0.12441 0
0.00306414 0.129167 0
0.0119364 0.129527 0
0.0227613 0.127746 0
0.0349607 0.12478 0
0.0480362 0.120915 0
0.0615263 0.116145 0
0.0749825 0.110369 0
0.0879617 0.103498 0
0.100031 0.0954984 0
0.110777 0.0864234 0
0.119826 0.0764127 0
0.126859 0.0656845 0
0.131629 0.0545122 0
0.133973 0.0431893 0
0.133817 0.0319879 0
0.131168 0.0211126 0
0.126101 0.0106541 0
0.11873 0.000532231 0
0.109159 -0.00956793 0
0.097389 -0.0204187 0
0.0832117 -0.0336964 0
0.0660517 -0.0527738 0
0.0446601 -0.0840158 0
0.0168007 -0.138126 0
-0.0200272 -0.228896 0
-0.0592245 -0.356981 0
-0.0756268 -0.474932 0
-0.0368823 -0.404363 0
-0.00423934 0.0420943 0
-0.011629 0.0885272 0
-0.0145353 0.110513 0
-0.0111463 0.118885 0
-0.00286016 0.120157 0
0.00872592 0.118079 0
0.0224428 0.114652 0
0.0374725 0.110644 0
0.0532095 0.106238 0
0.0691584 0.101383 0
0.0848715 0.0959622 0
0.099924 0.0898734 0
0.11391 0.0830682 0
0.126449 0.0755679 0
0.137203 0.0674647 0
0.145891 0.0589122 0
0.1523 0.0501049 0
0.156302 0.0412511 0
0.157844 0.0325393 0
0.156952 0.0241023 0
0.153706 0.015978 0
0.148224 0.00806152 0
0.140641 5.67517e-05 0
0.131004 -0.00863701 0
0.119088 -0.019384 0
0.104293 -0.0351311 0
0.0854319 -0.0614063 0
0.0602619 -0.107706 0
0.0254874 -0.187713 0
-0.0195612 -0.313918 0
-0.0554724 -0.465682 0
-0.0332925 -0.474538 0
-0.00836943 0.0547031 0
-0.0217219 0.0966606 0
-0.0260681 0.109632 0
-0.0208048 0.111114 0
-0.00918781 0.108025 0
0.00611747 0.103319 0
0.0234523 0.0983601 0
0.0418239 0.093535 0
0.0605981 0.0888358 0
0.0793051 0.0841292 0
0.0975442 0.0792637 0
0.114946 0.074118 0
0.131162 0.0686221 0
0.145872 0.0627641 0
0.158799 0.056588 0
0.169716 0.0501842 0
0.178465 0.0436737 0
0.18496 0.0371866 0
0.189182 0.0308382 0
0.191177 0.0247013 0
0.191027 0.0187747 0
0.188831 0.012943 0
0.184668 0.00692135 0
0.178598 0.000204542 0
0.170467 -0.00817794 0
0.159631 -0.0207053 0