# vtk DataFile Version 2.0
Lid-driven cavity
ASCII
DATASET STRUCTURED_POINTS
DIMENSIONS 32 32 1
ORIGIN 0.015625 0.015625 0
SPACING 0.03125 0.03125 1
POINT_DATA 1024
SCALARS pressure double 1
LOOKUP_TABLE default
2.78632
2.77439
2.76791
2.77332
2.79255
2.82567
2.87225
2.93187
3.0043
3.08936
3.18685
3.2964
3.41734
3.54859
3.68853
3.835
3.98531
4.13626
4.28415
4.42491
4.55444
4.66903
4.76578
4.84289
4.89987
4.93754
4.95786
4.9637
4.95861
4.94677
4.93315
4.92392
2.79825
2.78603
2.78293
2.79142
2.81251
2.84638
2.89289
2.95188
3.02322
3.1068
3.20244
3.30976
3.42808
3.55634
3.69296
3.83582
3.98234
4.12945
4.27362
4.41087
4.53723
4.64912
4.74377
4.81949
4.87591
4.91396
4.93566
4.94388
4.94204
4.93392
4.92349
4.91467
2.80421
2.78786
2.78486
2.7947
2.81701
2.85151
2.89802
2.95646
3.02685
3.10916
3.20331
3.30902
3.42569
3.55238
3.68759
3.82928
3.97494
4.12151
4.26543
4.4026
4.52889
4.64059
4.7348
4.80983
4.86538
4.90256
4.92365
4.93167
4.93007
4.92233
4.91173
4.90082
2.79509
2.77443
2.77035
2.78049
2.80338
2.8382
2.88461
2.94255
3.01212
3.09344
3.18656
3.29135
3.40742
3.53396
3.66966
3.81255
3.96014
4.10926
4.25612
4.39631
4.52537
4.6392
4.73462
4.80978
4.86442
4.89989
4.91885
4.92475
4.92124
4.91179
4.8994
4.88617
2.76521
2.74095
2.7356
2.74555
2.76857
2.80343
2.84963
2.90712
2.97607
3.05674
3.14937
3.25405
3.3706
3.49845
3.63649
3.78291
3.93512
4.08971
4.24252
4.38874
4.52335
4.6417
4.74009
4.81635
4.87021
4.90333
4.91896
4.92117
4.91413
4.9016
4.88666
4.87159
2.71062
2.68353
2.67702
2.68662
2.70953
2.74426
2.7902
2.84733
2.9159
2.99633
3.08907
3.19442
3.31249
3.44299
3.58507
3.73716
3.89645
4.05926
4.22099
4.37628
4.51943
4.64498
4.74846
4.82715
4.88064
4.91096
4.92213
4.9192
4.90724
4.89054
4.87255
4.856
2.62831
2.59895
2.59147
2.60069
2.6234
2.65791
2.7036
2.76045
2.82886
2.9094
3.00271
3.10936
3.22973
3.36385
3.51121
3.67059
3.83903
4.01252
4.186
4.35358
4.5087
4.64485
4.7564
4.83971
4.89392
4.92137
4.92707
4.91751
4.89909
4.87701
4.85529
4.83716
2.51577
2.48452
2.47621
2.48505
2.50748
2.5417
2.58708
2.64368
2.71199
2.79273
2.88675
2.99486
3.11774
3.25573
3.40872
3.57597
3.75482
3.94077
4.12853
4.3117
4.48288
4.63419
4.7584
4.85026
4.90787
4.93346
4.93314
4.91532
4.88847
4.85933
4.83259
4.81212
2.37082
2.3379
2.32882
2.33721
2.35922
2.39298
2.43785
2.49395
2.56186
2.64244
2.73669
2.84565
2.97022
3.11111
3.26861
3.44251
3.63142
3.83024
4.03379
4.23556
4.42743
4.60004
4.74397
4.85141
4.91822
4.94551
4.94003
4.91257
4.87473
4.83582
4.80186
4.77738
2.19152
2.15707
2.14716
2.15491
2.17622
2.20911
2.25295
2.30789
2.37456
2.45388
2.54694
2.65488
2.77884
2.9198
3.07853
3.25548
3.45068
3.66014
3.87877
4.10073
4.31784
4.51941
4.69333
4.82798
4.9151
4.95263
4.94647
4.90951
4.85774
4.80499
4.76014
4.72886
1.97617
1.94024
1.92935
1.93612
1.9562
1.98751
2.02938
2.08192
2.14572
2.22167
2.31078
2.41419
2.53308
2.66865
2.82217
2.99489
3.18798
3.40134
3.63011
3.87056
4.11574
4.35448
4.57188
4.75123
4.87757
4.94226
4.94701
4.90503
4.83738
4.7654
4.70397
4.66157
1.72333
1.68594
1.67381
1.67907
1.69712
1.72576
1.76418
1.81239
1.87079
1.94
2.02078
2.11398
2.22059
2.34189
2.47957
2.63596
2.81395
3.01666
3.24374
3.49482
3.7665
4.04893
4.32518
4.5726
4.76671
4.88748
4.92672
4.89322
4.81191
4.71488
4.62881
4.56883
1.43191
1.39305
1.37931
1.38236
1.39734
1.42183
1.45483
1.49603
1.54546
1.60322
1.66944
1.74432
1.82827
1.92233
2.02854
2.15046
2.2933
2.46356
2.6676
2.912
3.20052
3.52771
3.87679
4.21951
4.51951
4.73987
4.85419
4.8581
4.77499
4.64941
4.52817
4.44147
1.10123
1.06087
1.04509
1.04514
1.0558
1.07439
1.09954
1.13045
1.16645
1.20678
1.25047
1.29653
1.34428
1.39399
1.44783
1.51068
1.59077
1.69932
1.84909
2.0566
2.34007
2.70281
3.13203
3.5962
4.04649
4.42412
4.67464
4.76712
4.71149
4.56148
4.3933
4.2672
0.731074
0.689166
0.670931
0.667152
0.672246
0.683093
0.697787
0.714781
0.732377
0.748459
0.760433
0.765443
0.76098
0.745943
0.722091
0.695596
0.678167
0.687085
0.743504
0.871345
1.11272
1.48662
1.99
2.59297
3.23671
3.83832
4.30591
4.56513
4.59236
4.43774
4.21272
4.03002
0.32169
0.278175
0.257153
0.248922
0.247405
0.248913
0.250781
0.250419
0.244718
0.229729
0.200594
0.151867
0.0783837
-0.0231904
-0.152211
-0.301657
-0.456163
-0.591401
-0.675753
-0.674942
-0.529451
-0.187486
0.364404
1.10534
1.97306
2.86327
3.64122
4.17187
4.37026
4.25635
3.97208
3.7097
-0.126274
-0.171461
-0.195386
-0.208292
-0.216888
-0.225629
-0.238174
-0.258449
-0.291341
-0.343104
-0.421445
-0.535123
-0.692808
-0.901022
-1.1612
-1.46626
-1.79757
-2.12335
-2.39996
-2.57718
-2.58973
-2.34086
-1.78947
-0.938182
0.158058
1.38311
2.5619
3.48638
3.97847
3.9854
3.65526
3.28398
-0.611974
-0.658914
-0.685492
-0.702584
-0.71774
-0.736414
-0.763504
-0.804539
-0.866487
-0.958269
-1.0909
-1.27701
-1.52954
-1.8591
-2.2703
-2.7572
-3.29895
-3.85684
-4.37468
-4.78394
-5.0095
-4.92738
-4.44762
-3.54497
-2.25333
-0.683961
0.961609
2.4017
3.33684
3.58515
3.24834
2.73451
-1.13471
-1.18352
-1.21195
-1.23168
-1.2514
-1.27787
-1.31748
-1.37758
-1.46742
-1.59875
-1.78611
-2.04633
-2.39701
-2.85359
-3.42489
-4.10752
-4.88007
-5.6986
-6.49547
-7.1837
-7.6683
-7.82079
-7.49899
-6.63283
-5.22192
-3.35065
-1.22059
0.830387
2.36749
3.01782
2.7508
2.06259
-1.69447
-1.74533
-1.77404
-1.79338
-1.81365
-1.84335
-1.89065
-1.96489
-2.07763
-2.24344
-2.48027
-2.80901
-3.25197
-3.82964
-4.55577
-5.43085
-6.43503
-7.52183
-8.61511
-9.6118
-10.393
-10.8249
-10.7456
-10.0209
-8.60462
-6.53128
-3.96573
-1.26259
1.02056
2.2674
2.19776
1.31893
-2.29272
-2.3459
-2.37224
-2.38614
-2.40033
-2.42566
-2.47251
-2.55229
-2.67881
-2.86916
-3.14423
-3.52845
-4.04824
-4.7288
-5.58892
-6.63392
-7.84754
-9.18414
-10.5636
-11.8715
-12.9686
-13.7059
-13.9222
-13.4445
-12.1579
-10.0305
-7.15039
-3.82851
-0.695511
1.36692
1.69231
0.64648
-2.93348
-2.98937
-3.00913
-3.00984
-3.00797
-3.01775
-3.05229
-3.12526
-3.25247
-3.45302
-3.74999
-4.1703
-4.74338
-5.49809
-6.45761
-7.63226
-9.01093
-10.5521
-12.1771
-13.7673
-15.1709
-16.2197
-16.7512
-16.596
-15.5697
-13.5601
-10.5444
-6.71699
-2.68903
0.425024
1.4404
0.330224
-3.62505
-3.68409
-3.69069
-3.66665
-3.63444
-3.61328
-3.61982
-3.67013
-3.7817
-3.97495
-4.27407
-4.70715
-5.30499
-6.09847
-7.11371
-8.36537
-9.84802
-11.5269
-13.3299
-15.1425
-16.8104
-18.1527
-18.9969
-19.1835
-18.5157
-16.784
-13.8377
-9.68192
-4.77674
-0.358934
1.77819
0.847473
-4.38264
-4.44501
-4.42793
-4.36195
-4.27945
-4.20709
-4.1661
-4.17506
-4.25263
-4.41964
-4.70021
-5.1221
-5.7161
-6.51349
-7.54162
-8.81751
-10.3399
-12.0806
-13.9763
-15.9241
-17.7801
-19.3671
-20.4975
-21.0058
-20.7232
-19.3821
-16.6912
-12.4125
-6.69724
-0.698389
3.18526
2.91814
-5.23301
-5.29768
-5.2393
-5.10536
-4.94483
-4.7953
-4.68364
-4.63066
-4.65537
-4.77783
-5.0208
-5.41072
-5.97707
-6.75003
-7.75639
-9.01353
-10.5222
-12.2587
-14.1679
-16.1587
-18.104
-19.8447
-21.2005
-21.9902
-22.0377
-21.1118
-18.7945
-14.5753
-8.13597
-0.236029
6.28684
7.56566
-6.22355
-6.28521
-6.15401
-5.91137
-5.63399
-5.37464
-5.16608
-5.03002
-4.98413
-5.04597
-5.23574
-5.57744
-6.09821
-6.82607
-7.78596
-8.99423
-10.452
-12.138
-14.003
-15.9661
-17.915
-19.7104
-21.1924
-22.1857
-22.4906
-21.8701
-19.9015
-15.8372
-8.72859
1.45673
11.8644
16.2145
-7.44159
-7.48125
-7.21637
-6.79852
-6.3494
-5.94003
-5.60646
-5.36755
-5.23643
-5.22582
-5.35191
-5.63527
-6.09998
-6.77124
-7.67153
-8.81531
-10.2029
-11.8144
-13.6042
-15.4984
-17.3956
-19.1706
-20.6807
-21.7667
-22.2251
-21.7679
-19.941
-15.8383
-7.98614
4.96791
20.9256
30.8691
-9.06056
-9.01386
-8.48846
-7.7824
-7.08378
-6.47704
-5.99129
-5.63437
-5.40931
-5.3209
-5.37972
-5.60215
-6.00886
-6.62206
-7.46151
-8.53947
-9.855
-11.3882
-13.0958
-14.9082
-16.7302
-18.4436
-19.9123
-20.9839
-21.4636
-21.0127
-19.038
-14.4017
-5.09733
11.3378
34.9382
54.4223
-11.4623
-11.1037
-10.0347
-8.84503
-7.79143
-6.93849
-6.28161
-5.80226
-5.48489
-5.32304
-5.32036
-5.48865
-5.84512
-6.40906
-7.19763
-8.22086
-9.47617
-10.9431
-12.5791
-14.3166
-16.0627
-17.7004
-19.0899
-20.0659
-20.4267
-19.7906
-17.3223
-11.4845
0.559272
22.6157
56.4195
91.0155
-15.5858
-14.0645
-11.8049
-9.8166
-8.29565
-7.17373
-6.35606
-5.77265
-5.38345
-5.16926
-5.12633
-5.26165
-5.58901
-6.12489
-6.88397
-7.87402
-9.09064
-10.5123
-12.0959
-13.7742
-15.4539
-17.0147
-18.3055
-19.1343
-19.242
-18.206
-14.7957
-6.80784
9.7274
40.6502
90.5566
145.63
-23.8149
-17.7674
-13.049
-9.96795
-7.98183
-6.67787
-5.80191
-5.21276
-4.83834
-4.64596
-4.62612
-4.78318
-5.12934
-5.6797
-6.44743
-7.4387
-8.64762
-10.0514
-11.6063
-13.2439
-14.8691
-16.355
-17.5342
-18.1756
-17.9326
-16.2235
-11.3324
-0.198033
22.7032
66.6895
145.371
256.39
-46.016
-18.0656
-9.4309
-6.36538
-5.00163
-4.26574
-3.82512
-3.56285
-3.43729
-3.4385
-3.57235
-3.85335
-4.30022
-4.93207
-5.76437
-6.80453
-8.04733
-9.47042
-11.0302
-12.6581
-14.2572
-15.6946
-16.7858
-17.2576
-16.6587
-14.1319
-7.62673
6.53847
35.176
91.648
207.734
471.287
VECTORS velocity double
1.81307e-05 -1.81308e-05 0
-6.13337e-05 9.75951e-05 0
-0.000361688 0.000202759 0
-0.0008314 0.000266953 0
-0.00139705 0.000298695 0
-0.0020075 0.000311753 0
-0.00263477 0.000315525 0
-0.0032644 0.000314103 0
-0.00388627 0.000307761 0
-0.00448866 0.000294629 0
-0.00505524 0.000271955 0
-0.00556418 0.000236985 0
-0.00598878 0.000187612 0
-0.00629929 0.000122903 0
-0.00646568 4.34858e-05 0
-0.00646061 -4.85611e-05 0
-0.00626208 -0.000149971 0
-0.00585827 -0.000253838 0
-0.00525307 -0.000351358 0
-0.00446898 -0.000432739 0
-0.00354794 -0.000488297 0
-0.00254975 -0.000509898 0
-0.00154726 -0.000492588 0
-0.000618636 -0.000436037 0
0.000162692 -0.000345292 0
0.000738575 -0.000230591 0
0.00107429 -0.000105126 0
0.00116277 1.66468e-05 0
0.00102713 0.000118992 0
0.000724534 0.000183606 0
0.000357236 0.000183691 0
8.67724e-05 8.67722e-05 0
-0.000109528 7.32666e-05 0
-0.000588218 0.000564351 0
-0.00153586 0.000983994 0
-0.00282872 0.0012483 0
-0.00433224 0.00138652 0
-0.00594404 0.00144617 0
-0.00759679 0.00146113 0
-0.00924557 0.0014469 0
-0.0108538 0.00140505 0
-0.0123831 0.00132903 0
-0.0137879 0.00120895 0
-0.0150141 0.00103515 0
-0.0160009 0.000800797 0
-0.0166846 0.000503927 0
-0.0170046 0.000148841 0
-0.0169097 -0.000253859 0
-0.016366 -0.000686922 0
-0.015364 -0.00112265 0
-0.0139245 -0.00152722 0
-0.0121019 -0.0018636 0
-0.00998505 -0.00209534 0
-0.00769458 -0.00219152 0
-0.00537562 -0.00213242 0
-0.00318545 -0.001915 0
-0.00127685 -0.00155626 0
0.000220902 -0.00109326 0
0.00122132 -0.000578588 0
0.00169523 -7.22856e-05 0
0.00167884 0.000359959 0
0.00128019 0.000643882 0
0.000688279 0.000682624 0
0.000186519 0.000360063 0
-0.000261461 0.000444256 0
-0.00118318 0.00159377 0
-0.00278072 0.00249975 0
-0.00482771 0.0030724 0
-0.00714134 0.00337957 0
-0.00958944 0.00351303 0
-0.0120803 0.00353792 0
-0.014546 0.00348459 0
-0.0169269 0.00335645 0
-0.0191611 0.00314119 0
-0.0211799 0.00282034 0
-0.0229066 0.00237666 0
-0.02426 0.00179944 0
-0.0251596 0.00108857 0
-0.0255327 0.000257258 0
-0.0253229 -0.000666937 0
-0.0244995 -0.00164095 0
-0.023063 -0.00260711 0
-0.0210477 -0.00349746 0
-0.0185255 -0.00423821 0
-0.015607 -0.00475613 0
-0.0124407 -0.00498743 0
-0.00920747 -0.00488873 0
-0.00610791 -0.00444842 0
-0.00334397 -0.00369538 0
-0.00109434 -0.00270152 0
0.000511516 -0.0015766 0
0.00141841 -0.000455079 0
0.00166068 0.000516874 0
0.00136774 0.00117856 0
0.000769946 0.00133765 0
0.00021508 0.000761661 0
-0.000402503 0.00110822 0
-0.00174043 0.00318945 0
-0.00394322 0.00470439 0
-0.00667026 0.00564178 0
-0.0096886 0.00614216 0
-0.0128424 0.00635236 0
-0.0160238 0.00637088 0
-0.019149 0.00624248 0
-0.0221415 0.00597188 0
-0.0249226 0.00554111 0
-0.0274077 0.0049243 0
-0.0295072 0.00409893 0
-0.0311305 0.00305382 0
-0.0321916 0.00179488 0
-0.0326166 0.00034911 0
-0.0323525 -0.00123276 0
-0.0313736 -0.00287739 0
-0.029684 -0.00449674 0
-0.0273185 -0.00598862 0
-0.0243469 -0.00724088 0
-0.0208798 -0.00813909 0
-0.0170718 -0.00857869 0
-0.0131206 -0.00848192 0
-0.00925809 -0.00781732 0
-0.00573084 -0.00661767 0
-0.00277005 -0.00498964 0
-0.000554739 -0.00310965 0
0.000823179 -0.00120684 0
0.00138548 0.00046406 0
0.00127554 0.00163425 0
0.000754936 0.00200036 0
0.00021601 0.00119275 0
-0.000526344 0.00203707 0
-0.00223356 0.00530575 0
-0.00497509 0.00753241 0
-0.00830166 0.00886737 0
-0.011931 0.00956426 0
-0.0156861 0.0098392 0
-0.0194475 0.00982681 0
-0.0231214 0.00958563 0
-0.0266215 0.00912127 0
-0.0298597 0.00841105 0
-0.0327443 0.00742411 0
-0.0351817 0.00613604 0
-0.0370808 0.00453901 0
-0.0383584 0.00264836 0
-0.0389448 0.000507169 0
-0.0387898 -0.00181002 0
-0.0378652 -0.0042036 0
-0.0361631 -0.00656214 0
-0.0336972 -0.00875463 0
-0.0305117 -0.010632 0
-0.0266928 -0.012034 0
-0.0223806 -0.012804 0
-0.0177762 -0.0128122 0
-0.0131389 -0.0119868 0
-0.00876871 -0.0103456 0
-0.00497018 -0.00802099 0
-0.00200095 -0.00526285 0
-1.66285e-05 -0.00241588 0
0.000972196 0.000121973 0
0.00111676 0.00194171 0
0.000716303 0.00261395 0
0.000212813 0.00162157 0
-0.000633494 0.0031969 0
-0.00266107 0.00788071 0
-0.00587093 0.0109088 0
-0.00971858 0.0126652 0
-0.0138778 0.013555 0
-0.0181536 0.0138794 0
-0.0224191 0.0138134 0
-0.0265763 0.0134301 0
-0.030536 0.0127366 0
-0.0342094 0.0117073 0
-0.0375062 0.0103093 0
-0.0403377 0.00851975 0
-0.0426201 0.00633678 0
-0.0442779 0.00378595 0
-0.0452458 0.000923962 0
-0.0454693 -0.00215835 0
-0.0449023 -0.00534687 0
-0.0435032 -0.00852005 0
-0.0412387 -0.0115271 0
-0.0380994 -0.0141843 0
-0.0341212 -0.0162788 0
-0.0294073 -0.0175853 0
-0.0241465 -0.0178962 0
-0.0186202 -0.0170664 0
-0.0131909 -0.0150655 0
-0.00826413 -0.0120264 0
-0.00422106 -0.00826969 0
-0.00133272 -0.0042817 0
0.000315117 -0.000648869 0
0.000862128 0.00202098 0
0.000655035 0.00314222 0
0.000208718 0.0020431 0
-0.000725535 0.00455593 0
-0.00302788 0.0108516 0
-0.0066401 0.01476 0
-0.0109382 0.0169598 0
-0.0155603 0.0180416 0
-0.0202984 0.0184067 0
-0.0250231 0.0182763 0
-0.0296387 0.01774 0
-0.0340609 0.0168086 0
-0.0382087 0.0154564 0
-0.0420032 0.0136514 0
-0.0453685 0.0113745 0
-0.0482339 0.00862974 0
-0.050532 0.00544886 0
-0.0521961 0.00189306 0
-0.0531543 -0.00194573 0
-0.0533222 -0.00595853 0
-0.0525997 -0.01003 0
-0.0508805 -0.0140009 0
-0.048076 -0.0176544 0
-0.0441465 -0.0207163 0
-0.0391363 -0.0228719 0
-0.0332027 -0.023804 0
-0.0266361 -0.0232515 0
-0.0198601 -0.0210857 0
-0.0134001 -0.0173931 0
-0.0078078 -0.0125385 0
-0.00354158 -0.0071675 0
-0.000833594 -0.00211889 0
0.000393893 0.0017165 0
0.00052992 0.00351777 0
0.000195985 0.00244781 0
-0.000803701 0.00608517 0
-0.00333907 0.0141601 0
-0.00729402 0.0190187 0
-0.0119811 0.0216863 0
-0.0170121 0.022968 0
-0.0221726 0.023379 0
-0.0273368 0.023193 0
-0.0324183 0.0225204 0
-0.0373467 0.0213789 0
-0.0420585 0.0197458 0
-0.0464946 0.0175926 0
-0.0505996 0.0149036 0
-0.0543171 0.0116836 0
-0.0575836 0.00795968 0
-0.0603176 0.00378029 0
-0.0624077 -0.000784628 0
-0.0637095 -0.00564993 0
-0.0640457 -0.0107249 0
-0.0632179 -0.015853 0
-0.0610394 -0.0207854 0
-0.057378 -0.0251761 0
-0.0522001 -0.0286003 0
-0.0456107 -0.0305986 0
-0.0378863 -0.0307478 0
-0.0294924 -0.0287593 0
-0.0210698 -0.0246019 0
-0.0133695 -0.0186222 0
-0.00711101 -0.0116085 0
-0.00277928 -0.00471759 0
-0.000445438 0.000753875 0
0.000286055 0.00361288 0
0.00016445 0.00280824 0
-0.000868455 0.00775732 0
-0.00359735 0.0177522 0
-0.00784007 0.0236243 0
-0.0128615 0.0267893 0
-0.0182567 0.0282911 0
-0.023812 0.0287717 0
-0.0294123 0.0285647 0
-0.0349885 0.0278064 0
-0.040493 0.0265258 0
-0.0458893 0.0247068 0
-0.0511459 0.0223245 0
-0.0562305 0.0193612 0
-0.0610981 0.0158111 0
-0.0656764 0.0116769 0
-0.0698491 0.00696973 0
-0.0734452 0.00171212 0
-0.0762384 -0.00405174 0
-0.0779616 -0.0102635 0
-0.0783221 -0.0167817 0
-0.0770313 -0.0233261 0
-0.0738579 -0.0294703 0
-0.068678 -0.0346638 0
-0.0615232 -0.0382794 0
-0.0526242 -0.0396904 0
-0.0424491 -0.0383857 0
-0.0317204 -0.0341269 0
-0.0213798 -0.0271381 0
-0.012458 -0.018273 0
-0.00581291 -0.00902986 0
-0.00180734 -0.00127326 0
-0.000128033 0.00322921 0
0.000106395 0.00307908 0
-0.000919332 0.00954511 0
-0.00380205 0.021576 0
-0.00827881 0.0285199 0
-0.0135824 0.0322187 0
-0.0193004 0.0339751 0
-0.0252271 0.0345698 0
-0.0312647 0.0344045 0
-0.0373698 0.0336479 0
-0.043526 0.0323451 0
-0.0497309 0.0304886 0
-0.0559847 0.0280532 0
-0.0622762 0.0250085 0
-0.0685619 0.0213171 0
-0.0747437 0.016931 0
-0.0806509 0.0117955 0
-0.086033 0.00586448 0
-0.0905694 -0.000874496 0
-0.093904 -0.00838288 0
-0.0956641 -0.0165419 0
-0.0954737 -0.0250471 0
-0.0930065 -0.0333899 0
-0.0880426 -0.0408879 0
-0.0805192 -0.0467336 0
-0.0705836 -0.0500708 0
-0.0586519 -0.050112 0
-0.0454629 -0.0463183 0
-0.032097 -0.038653 0
-0.0198958 -0.0278812 0
-0.0101923 -0.0157703 0
-0.00383581 -0.00489483 0
-0.000761675 0.00209734 0
1.46899e-05 0.00320017 0
-0.00095493 0.0114194 0
-0.00394886 0.0255784 0
-0.00860314 0.0336486 0
-0.0141337 0.0379242 0
-0.0201294 0.0399833 0
-0.0263978 0.0407566 0
-0.0328652 0.0407227 0
-0.0395194 0.0400891 0
-0.0463814 0.038922 0
-0.0534858 0.037221 0
-0.0608631 0.034952 0
-0.068515 0.0320532 0
-0.0763859 0.028429 0
-0.0843362 0.0239512 0
-0.0921276 0.0184739 0
-0.0994262 0.0118669 0
-0.105825 0.00405799 0
-0.110879 -0.00492608 0
-0.114157 -0.0149613 0
-0.115229 -0.0257458 0
-0.113689 -0.036698 0
-0.109222 -0.0470108 0
-0.101654 -0.0557026 0
-0.0910089 -0.0616821 0
-0.0775878 -0.0638535 0
-0.0620582 -0.0612955 0
-0.0455424 -0.0535574 0
-0.0296277 -0.0410926 0
-0.0161637 -0.0257264 0
-0.006695 -0.010764 0
-0.00167169 -0.000130977 0
-0.000117215 0.00309764 0
-0.000973092 0.0133474 0
-0.00403046 0.0297017 0
-0.00879925 0.0389483 0
-0.0144937 0.0438494 0
-0.0207105 0.0462704 0
-0.0272748 0.0473023 0
-0.0341397 0.0475093 0
-0.0413278 0.0471449 0
-0.0488977 0.046298 0
-0.0569189 0.0449707 0
-0.0654447 0.0431054 0
-0.0744782 0.0405852 0
-0.0839394 0.037229 0
-0.0936401 0.0328022 0
-0.103277 0.0270512 0
-0.112445 0.0197564 0
-0.120669 0.0107908 0
-0.127442 0.000168519 0
-0.132281 -0.0119393 0
-0.134731 -0.0252456 0
-0.134341 -0.0391285 0
-0.130708 -0.0526801 0
-0.12354 -0.0647697 0
-0.112707 -0.0740922 0
-0.0983302 -0.0792416 0
-0.0809059 -0.0788614 0
-0.0614677 -0.0719455 0
-0.0417156 -0.0583713 0
-0.023961 -0.0396663 0
-0.0105978 -0.0196561 0
-0.00294894 -0.00391104 0
-0.000303069 0.00267736 0
-0.000971316 0.0152918 0
-0.00403788 0.0338812 0
-0.00884922 0.0443489 0
-0.0146325 0.0499266 0
-0.0209964 0.0527739 0
-0.0277847 0.0541515 0
-0.034977 0.0547172 0
-0.0426278 0.0547759 0
-0.0508291 0.0544382 0
-0.059677 0.0536996 0
-0.0692362 0.0524613 0
-0.0795014 0.050528 0
-0.0903636 0.0476097 0
-0.101592 0.0433505 0
-0.112836 0.0373836 0
-0.123647 0.0294032 0
-0.133512 0.0192335 0
-0.141893 0.00687942 0
-0.148258 -0.0074466 0
-0.152142 -0.0234036 0
-0.1531 -0.0404035 0
-0.150664 -0.0574733 0
-0.14443 -0.0733785 0
-0.134096 -0.0866501 0
-0.119548 -0.0956088 0
-0.101013 -0.0984538 0
-0.0792846 -0.0935196 0
-0.0559881 -0.0798458 0
-0.0337326 -0.0582019 0
-0.0157878 -0.0324285 0
-0.00473588 -0.0098394 0
-0.000575165 0.00179912 0
-0.000947359 0.0172105 0
-0.0039627 0.0380444 0
-0.00873507 0.0497694 0
-0.014518 0.0560722 0
-0.0209342 0.0594084 0
-0.0278429 0.0612142 0
-0.0352448 0.0622485 0
-0.0432192 0.0628699 0
-0.0518813 0.0632076 0
-0.0613419 0.0632387 0
-0.0716666 0.0628062 0
-0.0828367 0.0616184 0
-0.0947198 0.0592646 0
-0.107059 0.0552635 0
-0.119484 0.0491397 0
-0.131536 0.0405093 0
-0.142696 0.0291533 0
-0.152424 0.0150687 0
-0.160187 -0.00150861 0
-0.165514 -0.0201296 0
-0.167965 -0.0402689 0
-0.167065 -0.0609431 0
-0.162328 -0.0808797 0
-0.153284 -0.0985273 0
-0.139549 -0.112014 0
-0.120991 -0.119142 0
-0.098009 -0.117541 0
-0.0719337 -0.105196 0
-0.0454173 -0.0816235 0
-0.0224623 -0.0499067 0
-0.00719982 -0.0186756 0
-0.000974568 0.00024939 0
-0.000899986 0.0190578 0
-0.00379967 0.0421121 0
-0.008444 0.0551184 0
-0.0141248 0.062187 0
-0.0204776 0.0660626 0
-0.0273706 0.0683617 0
-0.0348158 0.0699481 0
-0.042906 0.071235 0
-0.0517659 0.0723645 0
-0.0615091 0.0732854 0
-0.0721949 0.0737701 0
-0.083793 0.0734227 0
-0.0961609 0.0717112 0
-0.109041 0.0680361 0
-0.122073 0.0618244 0
-0.13482 0.052623 0
-0.146795 0.0401745 0
-0.157486 0.0244669 0
-0.166387 0.00575675 0
-0.173024 -0.0154303 0
-0.176996 -0.0385452 0
-0.177884 -0.0626787 0
-0.175164 -0.0866015 0
-0.168224 -0.10879 0
-0.156401 -0.127309 0
-0.139136 -0.139672 0
-0.116291 -0.142838 0
-0.0886679 -0.133597 0
-0.0586494 -0.109757 0
-0.0306691 -0.0727085 0
-0.0104862 -0.0313192 0
-0.00154663 -0.00227181 0
-0.000829762 0.0207876 0
-0.0035496 0.0460019 0
-0.00797407 0.0602975 0
-0.0134428 0.0681575 0
-0.0196005 0.0726026 0
-0.0263149 0.0754291 0
-0.0335973 0.0776083 0
-0.0415392 0.0796069 0
-0.0502618 0.0815752 0
-0.0598708 0.0834268 0
-0.0704165 0.0848603 0
-0.081864 0.0853781 0
-0.0940773 0.084337 0
-0.106822 0.0810343 0
-0.119776 0.0748132 0
-0.132557 0.0651615 0
-0.144733 0.0517876 0
-0.155857 0.034669 0
-0.165477 0.0140747 0
-0.173152 -0.00943556 0
-0.178548 -0.0351723 0
-0.181339 -0.0623725 0
-0.181034 -0.0899333 0
-0.176938 -0.116495 0
-0.168133 -0.140232 0
-0.153597 -0.158551 0
-0.132537 -0.167864 0
-0.105001 -0.16373 0
-0.0727595 -0.141885 0
-0.040255 -0.101065 0
-0.0146853 -0.0487151 0
-0.00234122 -0.00615967 0
-0.000739758 0.0223571 0
-0.00322207 0.0496345 0
-0.00733963 0.0652068 0
-0.0124861 0.0738633 0
-0.01831 0.0788785 0
-0.0246681 0.0822256 0
-0.0315575 0.0849835 0
-0.039055 0.0876712 0
-0.0472661 0.0904446 0
-0.0562815 0.0931818 0
-0.0661431 0.0955126 0
-0.0768201 0.0968503 0
-0.0881997 0.0964579 0
-0.10009 0.0935481 0
-0.112232 0.087396 0
-0.124313 0.0774402 0
-0.135987 0.0633599 0
-0.14689 0.0451234 0
-0.156662 0.0230114 0
-0.164969 -0.00238959 0
-0.171548 -0.0302433 0
-0.176174 -0.0598842 0
-0.178484 -0.0904174 0
-0.17779 -0.1208 0
-0.172986 -0.149535 0
-0.162595 -0.174174 0
-0.145093 -0.190802 0
-0.119577 -0.193842 0
-0.0868544 -0.176737 0
-0.0508817 -0.13469 0
-0.0198458 -0.0716957 0
-0.00343402 -0.0119349 0
-0.000636079 0.0237329 0
-0.00283746 0.0529424 0
-0.00657573 0.0697548 0
-0.0112998 0.0791859 0
-0.0166564 0.0847365 0
-0.0224809 0.0885501 0
-0.0287448 0.0918123 0
-0.0354989 0.095094 0
-0.042824 0.098558 0
-0.0507926 0.102052 0
-0.0594402 0.105151 0
-0.0687494 0.107198 0
-0.0786432 0.107384 0
-0.0889887 0.104858 0
-0.0996036 0.0988427 0
-0.110267 0.0887382 0
-0.120732 0.0742006 0
-0.130741 0.0551947 0
-0.140048 0.0320196 0
-0.148443 0.00530347 0
-0.155762 -0.0240377 0
-0.16193 -0.0552956 0
-0.166787 -0.0878393 0
-0.169765 -0.121094 0
-0.169675 -0.154137 0
-0.16466 -0.184979 0
-0.152445 -0.209713 0
-0.13103 -0.221863 0
-0.0999296 -0.212539 0
-0.0620765 -0.172714 0
-0.0259897 -0.100795 0
-0.00493429 -0.0203032 0
-0.000528163 0.0248972 0
-0.00242843 0.0558798 0
-0.00574107 0.0738683 0
-0.00996494 0.0840203 0
-0.0147385 0.0900321 0
-0.0198686 0.0942091 0
-0.0252934 0.0978421 0
-0.0310304 0.101555 0
-0.0371317 0.105523 0
-0.0436504 0.109575 0
-0.0506197 0.113246 0
-0.0580421 0.115834 0
-0.0658859 0.116485 0
-0.074087 0.114303 0
-0.0825512 0.108476 0
-0.0911594 0.0983762 0
-0.0997753 0.0836432 0
-0.108259 0.0642447 0
-0.116488 0.040506 0
-0.124379 0.0131021 0
-0.13189 -0.0170056 0
-0.139122 -0.0489275 0
-0.146174 -0.0822981 0
-0.152714 -0.117117 0
-0.157637 -0.153281 0
-0.158853 -0.189634 0
-0.153412 -0.222714 0
-0.138138 -0.245552 0
-0.110979 -0.247109 0
-0.0732884 -0.213688 0
-0.0331061 -0.13609 0
-0.00696608 -0.0322036 0
-0.000428969 0.0258543 0
-0.00204078 0.0584347 0
-0.00491975 0.077505 0
-0.00859936 0.0882872 0
-0.0127039 0.0946434 0
-0.0170089 0.0990328 0
-0.0214166 0.102851 0
-0.0259104 0.106777 0
-0.0305139 0.111006 0
-0.0352635 0.11536 0
-0.0401935 0.11936 0
-0.045331 0.122281 0
-0.0506943 0.123246 0
-0.0562931 0.121342 0
-0.0621274 0.115736 0
-0.0681865 0.105784 0
-0.0744503 0.0911153 0
-0.0808963 0.0717022 0
-0.0875184 0.0478994 0
-0.0943586 0.0204398 0
-0.101537 -0.00965289 0
-0.109294 -0.0412919 0
-0.117946 -0.0742301 0
-0.127524 -0.109066 0
-0.137218 -0.146715 0
-0.144955 -0.187247 0
-0.147301 -0.228196 0
-0.139952 -0.262693 0
-0.119083 -0.277997 0
-0.0839312 -0.255643 0
-0.0411242 -0.177124 0
-0.00963189 -0.0488016 0
-0.000355318 0.0266386 0
-0.0017346 0.0606415 0
-0.00422267 0.0806652 0
-0.00735836 0.0919422 0
-0.010746 0.0984806 0
-0.0141325 0.102887 0
-0.01739 0.106662 0
-0.0204735 0.110544 0
-0.0233841 0.114753 0
-0.0261469 0.119125 0
-0.0288015 0.12318 0
-0.0314014 0.126198 0
-0.0340148 0.127306 0
-0.0367248 0.125591 0
-0.0396267 0.120223 0
-0.0428222 0.110552 0
-0.046415 0.0962039 0
-0.0505087 0.0771533 0
-0.0552151 0.0537769 0
-0.0606792 0.0268666 0
-0.0671228 -0.00245719 0
-0.0748675 -0.0329865 0
-0.0844007 -0.0643506 0
-0.0961347 -0.097633 0
-0.10976 -0.134829 0
-0.123572 -0.177584 0
-0.134015 -0.225069 0
-0.135864 -0.271319 0
-0.123448 -0.302655 0
-0.0934004 -0.296184 0
-0.04989 -0.2229 0
-0.0129873 -0.0714207 0
-0.000328937 0.0273228 0
-0.00158718 0.0625948 0
-0.00379048 0.0834033 0
-0.00643452 0.0949838 0
-0.00909807 0.10149 0
-0.0115107 0.105677 0
-0.0135292 0.109148 0
-0.015094 0.112706 0
-0.0161959 0.116604 0
-0.0168573 0.120698 0
-0.0171282 0.124532 0
-0.0170881 0.127406 0
-0.0168503 0.128473 0
-0.0165644 0.126848 0
-0.0164148 0.121718 0
-0.0166132 0.11245 0
-0.0173899 0.098675 0
-0.0189846 0.0803705 0
-0.0216398 0.0579214 0
-0.0256045 0.0321509 0
-0.0311532 0.00425086 0
-0.0386037 -0.0244993 0
-0.0484442 -0.0534641 0
-0.061316 -0.0839136 0
-0.0775237 -0.118716 0
-0.0961514 -0.161258 0
-0.114084 -0.21302 0
-0.125628 -0.269975 0
-0.123402 -0.318641 0
-0.101046 -0.332601 0
-0.0591447 -0.271895 0
-0.0170326 -0.101441 0
-0.000379209 0.028031 0
-0.00169984 0.0644655 0
-0.00380047 0.0858365 0
-0.00605998 0.0974542 0
-0.00802847 0.103652 0
-0.00944086 0.10734 0
-0.0101648 0.110227 0
-0.0101494 0.113176 0
-0.00939276 0.116479 0
-0.00792713 0.120019 0
-0.00581827 0.123373 0
-0.00317022 0.125877 0
-0.00013315 0.126727 0
0.00308635 0.125089 0
0.006224 0.120191 0
0.00896719 0.111433 0
0.010967 0.098469 0
0.0118523 0.081286 0
0.0112457 0.0602678 0
0.00878284 0.0362321 0
0.00412575 0.0103755 0
-0.00303564 -0.0160121 0
-0.012959 -0.0421875 0
-0.0261346 -0.069143 0
-0.043363 -0.10005 0
-0.0648412 -0.139818 0
-0.0886181 -0.192752 0
-0.109319 -0.257998 0
-0.11831 -0.323854 0
-0.10608 -0.361974 0
-0.0684648 -0.322038 0
-0.0217003 -0.140174 0
-0.000549418 0.0289596 0
-0.00221295 0.0665211 0
-0.00448102 0.0881497 0
-0.00651252 0.099432 0
-0.00783561 0.104966 0
-0.00823108 0.107834 0
-0.00761814 0.109844 0
-0.00598593 0.111912 0
-0.0033623 0.114363 0
0.000199182 0.117108 0
0.00461839 0.119756 0
0.00976864 0.121695 0
0.0154582 0.122182 0
0.0214233 0.120449 0
0.0273268 0.115789 0
0.032764 0.107654 0
0.0372775 0.0957346 0
0.0403763 0.0800363 0
0.0415642 0.0609361 0
0.0403811 0.0392098 0
0.0364636 0.0159723 0
0.0296086 -0.00759251 0
0.0197869 -0.0308619 0
0.0068375 -0.0543436 0
-0.0100819 -0.0807018 0
-0.0321476 -0.115622 0
-0.0591737 -0.166144 0
-0.0872441 -0.235834 0
-0.107451 -0.31682 0
-0.107397 -0.381292 0
-0.0771226 -0.370609 0
-0.0268079 -0.188682 0
-0.000909863 0.0304189 0
-0.00333503 0.0691505 0
-0.00613678 0.0905901 0
-0.00812472 0.101011 0
-0.00884042 0.105425 0
-0.00818012 0.10711 0
-0.00617219 0.107948 0
-0.00288333 0.108887 0
0.00160865 0.110272 0
0.00721856 0.112028 0
0.0138413 0.113795 0
0.0213239 0.115024 0
0.0294407 0.115047 0
0.0378799 0.113179 0
0.0462424 0.108793 0
0.0540485 0.101407 0
0.0607562 0.0907606 0
0.0657879 0.0768797 0
0.0685719 0.0601209 0
0.068601 0.041179 0
0.065511 0.0210105 0
0.0591436 0.00059168 0
0.0495228 -0.0196036 0
0.0367156 -0.0398454 0
0.0205008 -0.0620658 0
-0.000334626 -0.0913572 0
-0.0275027 -0.136215 0
-0.0598481 -0.205347 0
-0.0898647 -0.297084 0
-0.103317 -0.387631 0
-0.0838251 -0.414036 0
-0.0319523 -0.247442 0
-0.00158389 0.0329127 0
-0.00539444 0.0728924 0
-0.00918317 0.0934386 0
-0.0112846 0.102252 0
-0.0113583 0.104974 0
-0.00953153 0.105074 0
-0.00601843 0.104462 0
-0.0010037 0.104069 0
0.00536593 0.104229 0
0.0129651 0.104862 0
0.0216627 0.10564 0
0.0312827 0.106076 0
0.0415723 0.105589 0
0.0521845 0.103586 0
0.0626763 0.0995317 0
0.0725188 0.0930195 0
0.0811188 0.0838402 0
0.0878545 0.0720326 0
0.0921259 0.0579128 0
0.0934215 0.0420624 0
0.0913953 0.0252434 0
0.0859191 0.00820238 0
0.0770219 -0.00869631 0
0.0648124 -0.025736 0
0.0492921 -0.0444402 0
0.0299008 -0.0687559 0
0.00491696 -0.106664 0
-0.027609 -0.170026 0
-0.0642529 -0.265744 0
-0.0912728 -0.378498 0
-0.0863006 -0.447633 0
-0.0363124 -0.315707 0
-0.00279573 0.0372923 0
-0.00891589 0.0784435 0
-0.0141621 0.0969225 0
-0.0163753 0.103083 0
-0.0155827 0.103424 0
-0.0123235 0.101538 0
-0.0070879 0.09925 0
-0.000214205 0.0973928 0
0.00807535 0.0962454 0
0.0176216 0.0956997 0
0.0282757 0.0954504 0
0.0398469 0.0950739 0
0.0520665 0.0940815 0
0.0645699 0.0919784 0
0.0768942 0.0883235 0
0.0884915 0.082788 0
0.0987557 0.0752077 0
0.107063 0.0656219 0
0.112828 0.0542877 0
0.115564 0.0416551 0
0.114956 0.0282856 0
0.110891 0.0147006 0
0.103442 0.0011519 0
0.092728 -0.0126604 0
0.0787466 -0.0280141 0
0.0611428 -0.0481869 0
0.0387851 -0.0798919 0
0.00928163 -0.13477 0
-0.0289626 -0.226113 0
-0.0675277 -0.352545 0
-0.0807015 -0.465385 0
-0.0383126 -0.390332 0
-0.0049406 0.0450286 0
-0.0146679 0.0865547 0
-0.0215891 0.100979 0
-0.0234378 0.103088 0
-0.0211203 0.100308 0
-0.0158362 0.0961102 0
-0.00843172 0.0920375 0
0.000591254 0.0887087 0
0.0109552 0.086276 0
0.0224938 0.0845843 0
0.0350587 0.0833467 0
0.0484628 0.0822025 0
0.0624423 0.0807539 0
0.076639 0.0786059 0
0.0906005 0.0754102 0
0.103796 0.0709086 0
0.115646 0.0649723 0
0.125568 0.0576276 0
0.133027 0.0490592 0
0.137592 0.0395821 0
0.138988 0.0295711 0
0.137121 0.0193456 0
0.132065 0.00901274 0
0.123985 -0.00172722 0
0.112884 -0.0138645 0
0.0983601 -0.0302092 0
0.079384 -0.0565358 0
0.0537664 -0.103005 0
0.018175 -0.184042 0
-0.027059 -0.310816 0
-0.060845 -0.460153 0
-0.0350763 -0.463721 0
-0.0085864 0.0585556 0
-0.0233065 0.0974752 0
-0.0309449 0.104618 0
-0.030675 0.101028 0
-0.0251607 0.0945371 0
-0.0165097 0.0879465 0
-0.00592632 0.0822134 0
0.00598378 0.0775997 0
0.0189445 0.0740602 0
0.0328236 0.0713826 0
0.047511 0.0692961 0