# vtk DataFile Version 2.0
Lid-driven cavity
ASCII
DATASET STRUCTURED_POINTS
DIMENSIONS 32 32 1
ORIGIN 0.015625 0.015625 0
SPACING 0.03125 0.03125 1
POINT_DATA 1024
SCALARS pressure double 1
LOOKUP_TABLE default
2.16042
2.15032
2.14607
2.15326
2.17349
2.20678
2.25273
2.31091
2.38105
2.46289
2.55618
2.66049
2.77518
2.89924
3.03129
3.16947
3.31149
3.45467
3.59593
3.73182
3.85874
3.97333
4.07276
4.155
4.21904
4.26494
4.29381
4.30764
4.3092
4.30203
4.29073
4.28151
2.17053
2.16021
2.15888
2.16866
2.19043
2.22432
2.27016
2.32778
2.397
2.47762
2.5694
2.67191
2.7845
2.90619
3.03561
3.17092
3.30989
3.44995
3.58814
3.72108
3.84526
3.95742
4.05482
4.13554
4.19868
4.24442
4.27397
4.28942
4.2935
4.28953
4.28117
4.27228
2.17427
2.16047
2.15925
2.17017
2.19296
2.22737
2.27325
2.33048
2.39899
2.47868
2.56937
2.67072
2.78214
2.90274
3.0312
3.16574
3.30419
3.44398
3.58214
3.71517
3.83943
3.95155
4.04868
4.12887
4.19127
4.23619
4.26504
4.28011
4.2842
4.2804
4.27173
4.26063
2.16382
2.14648
2.14439
2.15559
2.17889
2.21363
2.25954
2.31651
2.38454
2.46366
2.55378
2.6547
2.76595
2.88678
3.01598
3.15184
3.29222
3.43446
3.57541
3.71131
3.83824
3.95251
4.05101
4.13163
4.19352
4.23716
4.26427
4.27746
4.27978
4.27433
4.2639
4.25048
2.13454
2.11433
2.11122
2.12231
2.14579
2.1807
2.22663
2.28348
2.35133
2.43031
2.52047
2.62178
2.73393
2.85636
2.988
3.12729
3.272
3.41933
3.56578
3.70724
3.83934
3.95791
4.05942
4.14145
4.2031
4.24509
4.26955
4.27963
4.27887
4.27063
4.25785
4.24269
2.08336
2.06093
2.05693
2.0678
2.09132
2.12632
2.17232
2.22924
2.29723
2.37654
2.4674
2.56993
2.68406
2.80941
2.94515
3.08984
3.24122
3.39617
3.55079
3.70052
3.8404
3.96559
4.07191
4.15649
4.21828
4.25826
4.2792
4.28503
4.28003
4.26816
4.25272
4.23628
2.00801
1.98383
1.97909
1.98975
2.01328
2.04837
2.09453
2.15171
2.22015
2.30024
2.39236
2.49684
2.61386
2.74326
2.88446
3.03627
3.19638
3.36133
3.52676
3.68759
3.83815
3.97271
4.08616
4.17491
4.23757
4.27537
4.29189
4.29223
4.28182
4.26542
4.24687
4.22925
1.90663
1.88098
1.87564
1.88611
1.90964
1.94484
1.9912
2.04875
2.11784
2.19896
2.29268
2.39955
2.51998
2.65409
2.8016
2.96161
3.13204
3.30898
3.48771
3.6626
3.8272
3.97465
4.09857
4.19417
4.25934
4.29534
4.30672
4.30019
4.28285
4.26071
4.23822
4.219
1.77761
1.75065
1.74475
1.75501
1.77848
1.81371
1.86021
1.91807
1.98772
2.0698
2.16504
2.2742
2.39791
2.5366
2.6903
2.85851
3.03981
3.22992
3.42386
3.61568
3.79813
3.9631
4.10249
4.20963
4.28089
4.31697
4.32324
4.30843
4.28215
4.25235
4.22444
4.20251
1.61949
1.59128
1.58478
1.59472
1.61796
1.65298
1.69932
1.75711
1.82686
1.90931
2.00534
2.11585
2.24171
2.38361
2.54197
2.71673
2.90735
3.11014
3.31985
3.53061
3.7348
3.92309
4.08526
4.21184
4.29636
4.33763
4.34092
4.31712
4.27936
4.23891
4.20299
4.17635
1.43093
1.40149
1.39428
1.40366
1.42631
1.46066
1.50622
1.56315
1.63199
1.71353
1.8087
1.9185
2.04394
2.18594
2.34526
2.5224
2.71752
2.92945
3.15263
3.38215
3.61093
3.82894
4.02372
4.18202
4.29266
4.35006
4.35727
4.32629
4.2747
4.21927
4.17112
4.13649
1.21075
1.18004
1.17191
1.18037
1.2019
1.23484
1.27864
1.33343
1.3997
1.47817
1.56971
1.67526
1.79581
1.93237
2.08603
2.25788
2.4491
2.66078
2.89018
3.13382
3.38689
3.64003
3.8791
4.08633
4.24354
4.33718
4.36382
4.33355
4.26799
4.19224
4.12543
4.07779
0.957946
0.925905
0.916592
0.923649
0.943333
0.973841
1.01453
1.06537
1.1267
1.19898
1.28281
1.37881
1.48768
1.61028
1.74783
1.90207
2.07551
2.27122
2.49203
2.73779
3.00864
3.29843
3.59301
3.87027
4.10298
4.26502
4.34004
4.32974
4.25644
4.15576
4.06137
3.99332
0.671728
0.638276
0.627467
0.632557
0.649544
0.67642
0.712324
0.756967
0.810298
0.872323
0.943021
1.02232
1.11021
1.20696
1.31362
1.43251
1.56782
1.72563
1.91331
2.13854
2.41063
2.73051
3.08729
3.45625
3.80026
4.07607
4.24603
4.29284
4.23096
4.10539
3.97257
3.87356
0.351567
0.316609
0.30399
0.306556
0.319978
0.341947
0.371257
0.407161
0.448995
0.495962
0.547018
0.600875
0.656197
0.712074
0.768845
0.829189
0.899177
0.988784
1.11126
1.28125
1.52452
1.85514
2.27055
2.74746
3.24032
3.68592
4.01649
4.18131
4.17123
4.03221
3.85026
3.70566
-0.00282292
-0.0393998
-0.054074
-0.0544598
-0.045308
-0.029354
-0.0083213
0.0163665
0.0431404
0.0700102
0.0944113
0.113214
0.123024
0.120938
0.10586
0.0802789
0.0521047
0.0358582
0.0522742
0.125452
0.293926
0.599115
1.0532
1.64076
2.31281
2.9871
3.55931
3.92916
4.04046
3.92005
3.68299
3.47263
-0.391547
-0.429872
-0.446692
-0.450152
-0.44556
-0.436245
-0.424646
-0.413108
-0.404417
-0.40216
-0.410942
-0.436395
-0.484774
-0.561893
-0.671241
-0.811363
-0.972979
-1.13678
-1.27313
-1.34493
-1.30713
-1.08145
-0.629621
0.0493197
0.911891
1.86348
2.76274
3.44637
3.78223
3.74317
3.4571
3.15459
-0.814687
-0.854915
-0.873696
-0.879821
-0.879342
-0.876399
-0.874367
-0.876762
-0.887877
-0.913252
-0.959992
-1.03681
-1.15358
-1.31992
-1.54281
-1.82296
-2.15074
-2.50262
-2.83964
-3.10986
-3.25558
-3.17799
-2.79104
-2.06787
-1.03431
0.216036
1.51395
2.62832
3.32267
3.46638
3.1594
2.733
-1.27258
-1.3149
-1.33504
-1.3426
-1.34466
-1.34646
-1.35255
-1.36785
-1.39839
-1.4519
-1.53829
-1.66973
-1.86022
-2.12394
-2.47233
-2.90957
-3.42723
-3.99896
-4.57742
-5.09552
-5.47438
-5.61115
-5.36881
-4.67672
-3.5303
-2.00312
-0.271374
1.37656
2.58161
3.05144
2.78554
2.20322
-1.76624
-1.81092
-1.83118
-1.83778
-1.83924
-1.84226
-1.85289
-1.87765
-1.92441
-2.0032
-2.12676
-2.3108
-2.57355
-2.9341
-3.409
-4.00709
-4.72286
-5.52951
-6.37373
-7.17494
-7.83215
-8.23073
-8.21488
-7.64911
-6.48578
-4.75678
-2.61346
-0.370466
1.49429
2.47267
2.35852
1.60026
-2.29804
-2.3454
-2.36367
-2.36527
-2.36086
-2.35918
-2.36812
-2.39597
-2.45251
-2.5499
-2.70348
-2.93215
-3.25805
-3.70486
-4.29433
-5.04064
-5.94285
-6.97644
-8.08596
-9.18164
-10.1438
-10.8368
-11.1026
-10.7642
-9.70612
-7.90084
-5.43713
-2.60363
0.0405965
1.74131
1.95759
1.03788
-2.87264
-2.92308
-2.93594
-2.92622
-2.90788
-2.89258
-2.89054
-2.91201
-2.96853
-3.07411
-3.24615
-3.50601
-3.87882
-4.39196
-5.07164
-5.93725
-6.99337
-8.22035
-9.56513
-10.9351
-12.199
-13.1996
-13.7713
-13.7375
-12.9108
-11.1871
-8.5579
-5.2175
-1.72681
0.93187
1.75122
0.755631
-3.49847
-3.55243
-3.55437
-3.52375
-3.47975
-3.43829
-3.41263
-3.41511
-3.45885
-3.55918
-3.73478
-4.0084
-4.40684
-4.95965
-5.69601
-6.6394
-7.79985
-9.16424
-10.6861
-12.277
-13.8043
-15.0982
-15.9779
-16.2732
-15.7808
-14.2975
-11.6961
-8.00511
-3.66661
0.20054
2.0245
1.16706
-4.19014
-4.24777
-4.22985
-4.16383
-4.07746
-3.99296
-3.9275
-3.89562
-3.91161
-3.9914
-4.154
-4.42229
-4.8232
-5.38677
-6.14344
-7.11901
-8.32736
-9.76138
-11.383
-13.1141
-14.8317
-16.3691
-17.5328
-18.1442
-18.0236
-16.9037
-14.5201
-10.6788
-5.55265
-0.212023
3.19417
2.90753
-4.97265
-5.03297
-4.97991
-4.85617
-4.70373
-4.55407
-4.42913
-4.34539
-4.31755
-4.36123
-4.49468
-4.73971
-5.12234
-5.67184
-6.41817
-7.38737
-8.59484
-10.0371
-11.6828
-13.4647
-15.2749
-16.9646
-18.351
-19.2415
-19.4491
-18.7365
-16.7058
-12.9086
-7.09224
0.0093708
5.81298
6.8906
-5.88953
-5.94769
-5.83185
-5.61486
-5.36259
-5.11931
-4.91194
-4.75772
-4.67031
-4.66365
-4.75383
-4.96074
-5.30852
-5.82467
-6.53747
-7.47169
-8.64245
-10.0477
-11.6604
-13.4219
-15.238
-16.9796
-18.4875
-19.5787
-20.0466
-19.6515
-17.9841
-14.3531
-7.93212
1.25633
10.5806
14.3964
-7.0202
-7.05908
-6.82656
-6.45758
-6.05685
-5.68413
-5.36899
-5.1262
-4.96562
-4.89735
-4.93394
-5.09245
-5.39453
-5.86526
-6.53059
-7.4132
-8.52679
-9.8693
-11.416
-13.1139
-14.8786
-16.5959
-18.1254
-19.305
-19.931
-19.7203
-18.2418
-14.6503
-7.60126
4.07237
18.4061
27.2331
-8.52129
-8.48303
-8.02069
-7.39877
-6.77964
-6.2343
-5.78602
-5.43991
-5.19729
-5.06136
-5.0397
-5.14581
-5.39847
-5.82018
-6.43437
-7.26134
-8.31285
-9.58594
-11.0567
-12.6752
-14.3629
-16.0135
-17.4959
-18.6572
-19.309
-19.1325
-17.5754
-13.5915
-5.34403
9.40854
30.6169
48.0173
-10.7355
-10.4174
-9.47149
-8.42082
-7.48724
-6.72361
-6.12327
-5.6681
-5.34366
-5.14249
-5.06615
-5.12419
-5.3325
-5.71107
-6.28094
-7.06003
-8.05802
-9.27049
-10.6732
-12.2172
-13.8263
-15.3962
-16.795
-17.8627
-18.4024
-18.075
-16.1185
-11.136
-0.543179
19.1335
49.4911
80.5114
-14.5021
-13.1398
-11.1288
-9.36468
-8.01318
-7.00815
-6.26307
-5.71425
-5.32454
-5.07535
-4.96187
-4.98954
-5.17131
-5.52476
-6.06866
-6.81864
-7.78218
-8.95302
-10.3057
-11.7907
-13.3314
-14.8212
-16.1202
-17.0466
-17.3562
-16.6724
-13.903
-7.05285
7.47093
34.9772
79.6979
129.298
-21.9507
-16.5205
-12.3037
-9.55992
-7.79093
-6.62115
-5.82168
-5.26546
-4.88691
-4.65545
-4.56122
-4.60746
-4.80587
-5.1729
-5.72592
-6.47889
-7.4374
-8.59337
-9.91965
-11.3653
-12.8514
-14.2662
-15.4563
-16.2076
-16.2006
-14.9147
-10.8366
-1.1989
18.9792
58.1102
128.5
228.094
-41.953
-16.8166
-9.07834
-6.34944
-5.13991
-4.48031
-4.07126
-3.80771
-3.65167
-3.59316
-3.6364
-3.79395
-4.08356
-4.52537
-5.13879
-5.93861
-6.93056
-8.10624
-9.43801
-10.8742
-12.334
-13.7004
-14.8058
-15.3998
-15.0723
-13.0575
-7.52966
4.83022
30.1585
80.4882
184.417
420.904
VECTORS velocity double
9.03345e-06 -9.03354e-06 0
-9.38323e-05 0.000111899 0
-0.00042124 0.000215508 0
-0.000913412 0.000276664 0
-0.00149578 0.000305699 0
-0.002118 0.000316528 0
-0.00275292 0.000318391 0
-0.00338676 0.000315441 0
-0.00401046 0.000308267 0
-0.00461416 0.000295425 0
-0.00518413 0.000274551 0
-0.0057018 0.000243116 0
-0.00614391 0.000198994 0
-0.00648386 0.000140959 0
-0.00669392 6.9097e-05 0
-0.00674795 -1.50641e-05 0
-0.00662345 -0.000109438 0
-0.00630527 -0.000208745 0
-0.0057912 -0.000305323 0
-0.00509562 -0.000390255 0
-0.00425099 -0.000454376 0
-0.0033071 -0.000489521 0
-0.00232761 -0.000489961 0
-0.00138393 -0.000453721 0
-0.000546841 -0.000383369 0
0.000122471 -0.000285943 0
0.000580521 -0.000172107 0
0.00080699 -5.43616e-05 0
0.000808052 5.32996e-05 0
0.000621925 0.000132827 0
0.000331907 0.000157192 0
8.73574e-05 8.73572e-05 0
-0.000123875 0.000105808 0
-0.00063475 0.000610798 0
-0.00161299 0.00102226 0
-0.00292495 0.00127404 0
-0.00443566 0.00140139 0
-0.00604502 0.00145242 0
-0.00768831 0.00146071 0
-0.00932357 0.00144222 0
-0.0109182 0.00139984 0
-0.0124393 0.00132861 0
-0.0138479 0.00121998 0
-0.0150974 0.00106482 0
-0.0161338 0.000855809 0
-0.016899 0.000589351 0
-0.0173354 0.000267163 0
-0.0173915 -0.000103071 0
-0.0170282 -0.000509203 0
-0.0162268 -0.000928529 0
-0.0149954 -0.00133103 0
-0.013373 -0.00168257 0
-0.0114312 -0.00194843 0
-0.00927294 -0.00209764 0
-0.0070262 -0.00210806 0
-0.00483433 -0.00197118 0
-0.00284193 -0.0016954 0
-0.00117872 -0.00130644 0
5.64738e-05 -0.000844851 0
0.000809915 -0.000361529 0
0.00108441 8.49135e-05 0
0.000949677 0.000422068 0
0.000556899 0.000550747 0
0.000160268 0.000334982 0
-0.000270891 0.000500574 0
-0.00120755 0.00166356 0
-0.00280674 0.00254693 0
-0.00483749 0.00309209 0
-0.00712007 0.00337663 0
-0.0095268 0.00349328 0
-0.0119707 0.00350704 0
-0.0143892 0.00344964 0
-0.0167295 0.00332735 0
-0.0189382 0.00313089 0
-0.0209558 0.00284387 0
-0.0227146 0.00244918 0
-0.0241407 0.00193398 0
-0.025158 0.00129373 0
-0.0256941 0.000535302 0
-0.025688 -0.000321256 0
-0.0250994 -0.00124289 0
-0.0239163 -0.00217936 0
-0.0221593 -0.00306863 0
-0.0198851 -0.00384153 0
-0.0171885 -0.00442785 0
-0.0142006 -0.00476439 0
-0.0110841 -0.00480457 0
-0.00802247 -0.00452819 0
-0.00520414 -0.00394912 0
-0.00280203 -0.00311804 0
-0.000951495 -0.00211898 0
0.000269564 -0.0010619 0
0.000857509 -7.71526e-05 0
0.000895467 0.000680904 0
0.000565357 0.0010148 0
0.000168835 0.000664085 0
-0.000400926 0.00117239 0
-0.00172047 0.00324794 0
-0.00387566 0.00471694 0
-0.00653147 0.00560863 0
-0.00946319 0.00607437 0
-0.0125223 0.00626135 0
-0.0156076 0.00626818 0
-0.0186429 0.0061423 0
-0.0215607 0.00589286 0
-0.0242925 0.00550586 0
-0.0267632 0.00495721 0
-0.0288914 0.00422273 0
-0.0305907 0.00328593 0
-0.0317759 0.00214421 0
-0.0323685 0.000813583 0
-0.0323061 -0.000668048 0
-0.0315515 -0.00223931 0
-0.0300984 -0.00381915 0
-0.0279732 -0.00531105 0
-0.0252385 -0.00660796 0
-0.0219965 -0.00760005 0
-0.0183907 -0.00818588 0
-0.0146034 -0.00828686 0
-0.0108474 -0.00786355 0
-0.00734891 -0.00693055 0
-0.0043228 -0.00556483 0
-0.00194208 -0.00390345 0
-0.000309142 -0.00213143 0
0.000565528 -0.000470243 0
0.000776505 0.000825059 0
0.000531066 0.00144619 0
0.00016368 0.000996599 0
-0.000510384 0.0020837 0
-0.00215693 0.00530272 0
-0.00479037 0.00745079 0
-0.00798008 0.00872029 0
-0.0114581 0.00937244 0
-0.0150574 0.00962169 0
-0.0186671 0.00960279 0
-0.0222023 0.00937822 0
-0.0255865 0.00895902 0
-0.0287414 0.00832628 0
-0.0315827 0.00744893 0
-0.0340209 0.00629736 0
-0.0359641 0.00485385 0
-0.0373233 0.00312057 0
-0.0380192 0.00112578 0
-0.0379902 -0.00107164 0
-0.0372001 -0.00338043 0
-0.0356397 -0.00569155 0
-0.0333271 -0.00787646 0
-0.0303134 -0.00979098 0
-0.0266896 -0.0112828 0
-0.0225943 -0.0122044 0
-0.0182171 -0.0124328 0
-0.0137961 -0.0118946 0
-0.00960161 -0.0105924 0
-0.00590645 -0.00862429 0
-0.00294293 -0.00618823 0
-0.000857806 -0.00356471 0
0.000321273 -0.00109071 0
0.000701348 0.000854469 0
0.00052369 0.00183988 0
0.000166855 0.00132713 0
-0.000601535 0.00319562 0
-0.00252209 0.0077579 0
-0.00555858 0.0106655 0
-0.00919932 0.012336 0
-0.0131384 0.0131739 0
-0.0171934 0.0134746 0
-0.0212466 0.0134128 0
-0.0252091 0.013066 0
-0.0290004 0.0124467 0
-0.0325381 0.0115312 0
-0.035735 0.0102823 0
-0.0384995 0.00866677 0
-0.0407396 0.00666772 0
-0.0423677 0.00429395 0
-0.0433062 0.00158683 0
-0.0434933 -0.00137453 0
-0.0428864 -0.00447461 0
-0.0414594 -0.00758475 0
-0.0392033 -0.010552 0
-0.0361339 -0.0131986 0
-0.0323063 -0.0153266 0
-0.0278308 -0.0167313 0
-0.0228884 -0.0172254 0
-0.0177361 -0.0166754 0
-0.0126969 -0.0150453 0
-0.00812656 -0.0124368 0
-0.00435632 -0.00910944 0
-0.00162079 -0.00546415 0
3.40818e-06 -0.00199456 0
0.000625807 0.000755843 0
0.000534431 0.00220754 0
0.000178376 0.00167236 0
-0.000677208 0.00447436 0
-0.00282558 0.0105481 0
-0.00619883 0.0142851 0
-0.0102197 0.016378 0
-0.0145517 0.0174031 0
-0.0190011 0.0177497 0
-0.0234472 0.0176369 0
-0.0278013 0.0171585 0
-0.0319842 0.0163285 0
-0.0359159 0.0151189 0
-0.0395124 0.0134879 0
-0.0426868 0.0114001 0
-0.0453531 0.00884075 0
-0.0474293 0.00582526 0
-0.0488408 0.00240548 0
-0.0495208 -0.0013261 0
-0.0494088 -0.00524192 0
-0.0484446 -0.00920859 0
-0.0465673 -0.0130616 0
-0.0437293 -0.0165963 0
-0.0399202 -0.0195657 0
-0.0351952 -0.0216926 0
-0.0297036 -0.022698 0
-0.0237081 -0.0223506 0
-0.0175856 -0.020532 0
-0.0117976 -0.0173085 0
-0.00682192 -0.0129838 0
-0.00304711 -0.00810015 0
-0.00066179 -0.00336807 0
0.000410501 0.000434671 0
0.000509437 0.00252115 0
0.000186752 0.00203749 0
-0.000739613 0.00589118 0
-0.00307607 0.0136161 0
-0.00672932 0.0182436 0
-0.011071 0.020782 0
-0.0157426 0.0220027 0
-0.0205437 0.0224004 0
-0.0253552 0.0222437 0
-0.0300935 0.0216442 0
-0.034687 0.0206191 0
-0.0390645 0.0191375 0
-0.0431531 0.0171543 0
-0.0468783 0.0146333 0
-0.0501662 0.0115617 0
-0.0529441 0.00795849 0
-0.0551385 0.00387803 0
-0.0566683 -0.000588873 0
-0.057439 -0.00532027 0
-0.0573348 -0.0101987 0
-0.0562176 -0.0150661 0
-0.0539483 -0.019699 0
-0.0504226 -0.0237977 0
-0.0456138 -0.0269945 0
-0.0396146 -0.028887 0
-0.0326716 -0.0291 0
-0.0252027 -0.027374 0
-0.017781 -0.023676 0
-0.0110691 -0.0183039 0
-0.00568614 -0.0119377 0
-0.00203026 -0.0055717 0
-0.000131991 -0.000332254 0
0.000377063 0.00268008 0
0.000177031 0.00240127 0
-0.000790077 0.00742087 0
-0.00327936 0.0169121 0
-0.00716312 0.0224846 0
-0.0117755 0.0254951 0
-0.0167437 0.0269294 0
-0.0218663 0.0273975 0
-0.0270306 0.0272225 0
-0.0321644 0.0265375 0
-0.0372099 0.0253648 0
-0.0421136 0.023673 0
-0.0468219 0.0214157 0
-0.051281 0.0185561 0
-0.0554345 0.0150804 0
-0.0592194 0.0110026 0
-0.0625558 0.00636456 0
-0.0653344 0.00123302 0
-0.0674044 -0.00430144 0
-0.0685711 -0.010155 0
-0.0686006 -0.0161976 0
-0.0672424 -0.0221951 0
-0.0642798 -0.0277899 0
-0.0595842 -0.0325067 0
-0.0531686 -0.0357897 0
-0.0452355 -0.0370734 0
-0.0362131 -0.035892 0
-0.0267651 -0.0320277 0
-0.017747 -0.0256823 0
-0.0100713 -0.017618 0
-0.00446501 -0.00915357 0
-0.00119428 -0.00191937 0
6.65839e-05 0.00249728 0
0.000136193 0.0027145 0
-0.00082898 0.00903993 0
-0.00343775 0.0203911 0
-0.00750624 0.0269578 0
-0.0123437 0.0304717 0
-0.0175705 0.0321478 0
-0.0229898 0.0327209 0
-0.0285008 0.0325744 0
-0.0340483 0.0318669 0
-0.039597 0.0306297 0
-0.0451193 0.0288341 0
-0.0505904 0.0264341 0
-0.0559841 0.0233904 0
-0.0612644 0.01968 0
-0.0663725 0.0152961 0
-0.0712084 0.0102434 0
-0.0756122 0.00453663 0
-0.0793529 -0.00179446 0
-0.0821412 -0.00870686 0
-0.0836411 -0.0161163 0
-0.0834891 -0.0237864 0
-0.0813524 -0.0312978 0
-0.0769918 -0.038055 0
-0.0703217 -0.0433272 0
-0.0614678 -0.0463228 0
-0.0508228 -0.0463099 0
-0.0390889 -0.0427916 0
-0.0272795 -0.0357459 0
-0.0166207 -0.0258889 0
-0.00828273 -0.0148269 0
-0.00295132 -0.00484816 0
-0.000483431 0.00169732 0
5.53669e-05 0.00290606 0
-0.000855814 0.0107247 0
-0.00355008 0.0240094 0
-0.00775748 0.0316155 0
-0.0127743 0.0356683 0
-0.0182209 0.0376246 0
-0.0239098 0.0383523 0
-0.0297571 0.0383013 0
-0.0357313 0.0376617 0
-0.0418266 0.0364789 0
-0.0480502 0.0347306 0
-0.054413 0.0323715 0
-0.0609202 0.0293538 0
-0.0675535 0.0256302 0
-0.0742472 0.0211478 0
-0.0808628 0.015843 0
-0.0871691 0.00964709 0
-0.0928409 0.00250748 0
-0.097481 -0.00558034 0
-0.10066 -0.0145641 0
-0.101928 -0.0242229 0
-0.100847 -0.0340781 0
-0.0970711 -0.0434117 0
-0.0904006 -0.0513112 0
-0.0808504 -0.0567428 0
-0.0687198 -0.0586656 0
-0.0546717 -0.0562178 0
-0.0397967 -0.0490041 0
-0.0255928 -0.0374934 0
-0.0137395 -0.0234137 0
-0.00555459 -0.00977763 0
-0.00131922 -7.64717e-05 0
-6.97989e-05 0.00289162 0
-0.000869356 0.0124499 0
-0.00361233 0.0277214 0
-0.00790946 0.036408 0
-0.0130556 0.0410388 0
-0.0186765 0.0433216 0
-0.0245977 0.0442653 0
-0.0307563 0.0443941 0
-0.0371494 0.0439362 0
-0.0438069 0.0429573 0
-0.0507755 0.0414444 0
-0.0581054 0.0393505 0
-0.0658308 0.0366074 0
-0.0739424 0.0331214 0
-0.0823541 0.0287622 0
-0.0908744 0.0233645 0
-0.0991924 0.0167499 0
-0.106888 0.00877176 0
-0.113463 -0.000628816 0
-0.11841 -0.0113896 0
-0.121225 -0.0233156 0
-0.1214 -0.0358904 0
-0.11849 -0.0482852 0
-0.112179 -0.05942 0
-0.102337 -0.0680261 0
-0.0891085 -0.0727412 0
-0.0730233 -0.0722755 0
-0.0551288 -0.0657159 0
-0.0370835 -0.053031 0
-0.0210562 -0.0357567 0
-0.00918074 -0.017495 0
-0.00250466 -0.00327051 0
-0.000245123 0.0025767 0
-0.000868013 0.0141873 0
-0.00361887 0.0314779 0
-0.00795087 0.0412806 0
-0.0131684 0.0465298 0
-0.0189064 0.0491896 0
-0.0250054 0.0504175 0
-0.0314252 0.0508203 0
-0.0381937 0.0506718 0
-0.0453781 0.0500636 0
-0.0530653 0.0489938 0
-0.0613409 0.0474065 0
-0.0702604 0.0451963 0
-0.0798124 0.0421961 0
-0.0898809 0.0381677 0
-0.100219 0.0328173 0
-0.110445 0.0258416 0
-0.120067 0.0169973 0
-0.12852 0.00617417 0
-0.135218 -0.00654805 0
-0.139625 -0.0209362 0
-0.141221 -0.0364979 0
-0.139486 -0.0523221 0
-0.133987 -0.0671943 0
-0.124432 -0.0796485 0
-0.110755 -0.0880237 0
-0.0932525 -0.0905808 0
-0.0727835 -0.0857741 0
-0.0509932 -0.0728083 0
-0.0304093 -0.0525905 0
-0.0140583 -0.0288877 0
-0.00415692 -0.00845528 0
-0.000493282 0.0018383 0
-0.000850289 0.0159056 0
-0.0035641 0.0352243 0
-0.00786971 0.0461719 0
-0.013091 0.0520774 0
-0.0188743 0.0551633 0
-0.025074 0.0567425 0
-0.0316711 0.0575122 0
-0.0387223 0.0577996 0
-0.0463288 0.0577267 0
-0.0546111 0.0573004 0
-0.0636813 0.0564457 0
-0.0736056 0.0550009 0
-0.0843623 0.0527003 0
-0.0958053 0.049175 0
-0.107646 0.0439887 0
-0.119459 0.0367103 0
-0.130713 0.0270047 0
-0.140811 0.0147176 0
-0.149139 -6.62626e-05 0
-0.155133 -0.0170171 0
-0.158269 -0.0356845 0
-0.158008 -0.055132 0
-0.153827 -0.0740654 0
-0.14527 -0.0908883 0
-0.132024 -0.103707 0
-0.114057 -0.110366 0
-0.0918876 -0.108628 0
-0.0669298 -0.0967027 0
-0.041835 -0.0743749 0
-0.0204308 -0.0448585 0
-0.00644912 -0.0163675 0
-0.000853615 0.000491399 0
-0.000815369 0.0175712 0
-0.00344457 0.0389016 0
-0.0076574 0.0510129 0
-0.0128059 0.0576061 0
-0.018547 0.061159 0
-0.0247456 0.063145 0
-0.0313984 0.0643595 0
-0.0385841 0.0651891 0
-0.0464283 0.0657879 0
-0.0550745 0.0661677 0
-0.0646486 0.0662227 0
-0.0752181 0.0657176 0
-0.08675 0.0642722 0
-0.0990809 0.0613769 0
-0.111906 0.0564529 0
-0.124795 0.0489481 0
-0.137218 0.038444 0
-0.148588 0.0247456 0
-0.158294 0.00794024 0
-0.165745 -0.0115791 0
-0.17044 -0.0332908 0
-0.17189 -0.0563372 0
-0.16952 -0.0794119 0
-0.162734 -0.100883 0
-0.150955 -0.118739 0
-0.133756 -0.1305 0
-0.11116 -0.133259 0
-0.0841172 -0.124072 0
-0.0550915 -0.101126 0
-0.0284411 -0.066162 0
-0.00956713 -0.0279198 0
-0.00137839 -0.00174061 0
-0.000763756 0.0191503 0
-0.00326131 0.0424493 0
-0.00731333 0.0557301 0
-0.0123062 0.0630303 0
-0.0179051 0.0670748 0
-0.0239783 0.069501 0
-0.0305298 0.0712079 0
-0.037649 0.0726455 0
-0.0454732 0.074 0
-0.0541541 0.0752826 0
-0.0638196 0.0763474 0
-0.0745331 0.0768759 0
-0.0862566 0.0763694 0
-0.0988282 0.0741821 0
-0.111958 0.0696036 0
-0.125246 0.061974 0
-0.138205 0.0507996 0
-0.150291 0.0358463 0
-0.160942 0.0171965 0
-0.169597 -0.00472933 0
-0.17579 -0.0292526 0
-0.179079 -0.0556365 0
-0.178923 -0.0826391 0
-0.174647 -0.108717 0
-0.16543 -0.131901 0
-0.150407 -0.14956 0
-0.128982 -0.15822 0
-0.101402 -0.153734 0
-0.0695913 -0.1323 0
-0.0380266 -0.0932028 0
-0.0136505 -0.044129 0
-0.0021258 -0.0052448 0
-0.000697875 0.020612 0
-0.0030221 0.0458094 0
-0.00684947 0.0602494 0
-0.0116037 0.0682582 0
-0.0169532 0.0727952 0
-0.0227617 0.0756623 0
-0.0290289 0.0778655 0
-0.035842 0.0799201 0
-0.0433351 0.0820428 0
-0.0516542 0.0842398 0
-0.0609193 0.0863209 0
-0.0711889 0.0878854 0
-0.0824299 0.0883245 0
-0.0945033 0.0868719 0
-0.107164 0.0827047 0
-0.120074 0.0750708 0
-0.132823 0.0634105 0
-0.144952 0.0474512 0
-0.155976 0.0272661 0
-0.165418 0.00329812 0
-0.17285 -0.0236555 0
-0.17792 -0.052874 0
-0.180209 -0.083269 0
-0.179043 -0.113529 0
-0.173415 -0.141934 0
-0.162025 -0.165941 0
-0.143563 -0.181726 0
-0.117363 -0.184009 0
-0.0844447 -0.166753 0
-0.0488949 -0.125864 0
-0.0187825 -0.0659558 0
-0.00317727 -0.0105479 0
-0.000622605 0.0219325 0
-0.00274351 0.0489341 0
-0.0062945 0.0645031 0
-0.0107349 0.0731992 0
-0.0157301 0.078199 0
-0.02113 0.0814669 0
-0.0269194 0.0841175 0
-0.0331698 0.0867314 0
-0.0399991 0.0895539 0
-0.0475357 0.0925844 0
-0.0558856 0.0955914 0
-0.0651036 0.0981024 0
-0.0751723 0.0994173 0
-0.0859932 0.0986734 0
-0.0973882 0.0949588 0
-0.109109 0.0874475 0
-0.12085 0.0755241 0
-0.132264 0.0588808 0
-0.142983 0.037579 0
-0.152633 0.0120773 0
-0.160859 -0.0167769 0
-0.167445 -0.048096 0
-0.172173 -0.0810302 0
-0.174472 -0.114635 0
-0.173252 -0.147676 0
-0.166831 -0.178011 0
-0.15316 -0.201788 0
-0.130485 -0.212823 0
-0.0985738 -0.202769 0
-0.0605654 -0.163407 0
-0.0250027 -0.0940879 0
-0.00464928 -0.0183744 0
-0.000545697 0.0231008 0
-0.00245261 0.0517936 0
-0.0056972 0.0684391 0
-0.00976619 0.0777725 0
-0.0143146 0.0831693 0
-0.0191708 0.0867527 0
-0.0242956 0.0897458 0
-0.0297351 0.092793 0
-0.0355809 0.0961673 0
-0.0419367 0.0998633 0
-0.048891 0.103617 0
-0.0564973 0.106901 0
-0.0647617 0.108951 0
-0.0736381 0.108837 0
-0.0830293 0.105582 0
-0.0927906 0.0983066 0
-0.102736 0.0863518 0
-0.112649 0.0693801 0
-0.122295 0.0474439 0
-0.131449 0.0210174 0
-0.139918 -0.00902203 0
-0.14762 -0.0415628 0
-0.154524 -0.0759318 0
-0.160303 -0.111656 0
-0.163946 -0.148232 0
-0.163526 -0.184295 0
-0.156301 -0.216401 0
-0.139336 -0.23785 0
-0.110842 -0.238145 0
-0.0724344 -0.204448 0
-0.0323039 -0.128741 0
-0.0066775 -0.0297012 0
-0.000478178 0.0241246 0
-0.00218845 0.0543869 0
-0.00512914 0.0720311 0
-0.00879695 0.0819173 0
-0.0128286 0.0876045 0
-0.0170264 0.0913715 0
-0.0213226 0.094548 0
-0.0257337 0.0978414 0
-0.0303204 0.101552 0
-0.035159 0.105673 0
-0.0403203 0.109922 0
-0.045859 0.113741 0
-0.0518088 0.116326 0
-0.0581815 0.116711 0
-0.0649671 0.113884 0
-0.0721331 0.106932 0
-0.0796239 0.0951634 0
-0.0873637 0.0782208 0
-0.0952684 0.0561536 0
-0.103269 0.0294628 0
-0.111348 -0.000919173 0
-0.119564 -0.0337475 0
-0.128099 -0.0683087 0
-0.136969 -0.10463 0
-0.145428 -0.143155 0
-0.151525 -0.183695 0
-0.151991 -0.223761 0
-0.142729 -0.256717 0
-0.120167 -0.270333 0
-0.0838305 -0.247004 0
-0.0406022 -0.169543 0
-0.00937434 -0.045753 0
-0.000434948 0.0250378 0
-0.00200403 0.0567531 0
-0.0046874 0.0752889 0
-0.00796162 0.0856016 0
-0.0114369 0.0914273 0
-0.01489 0.0951995 0
-0.0182272 0.0983535 0
-0.0214376 0.101657 0
-0.0245538 0.105439 0
-0.027627 0.109698 0
-0.0307132 0.114145 0
-0.0338703 0.118214 0
-0.0371606 0.121093 0
-0.0406529 0.121809 0
-0.0444235 0.119342 0
-0.0485529 0.112769 0
-0.0531205 0.101385 0
-0.0582004 0.0848194 0
-0.0638637 0.063123 0
-0.0701933 0.0368241 0
-0.0773153 0.00692033 0
-0.0854229 -0.0252632 0
-0.0948896 -0.0587915 0
-0.106087 -0.0940804 0
-0.118725 -0.132608 0
-0.131143 -0.175727 0
-0.139874 -0.222532 0
-0.139842 -0.26724 0
-0.125593 -0.296622 0
-0.0940478 -0.288597 0
-0.0497103 -0.215516 0
-0.0127955 -0.0679229 0
-0.000436073 0.0259088 0
-0.00196985 0.058985 0
-0.00449865 0.0782693 0
-0.00743151 0.0888283 0
-0.0103445 0.0945889 0
-0.0129968 0.0981432 0
-0.0152804 0.101031 0
-0.0171677 0.104078 0
-0.0186727 0.10764 0
-0.0198297 0.111727 0
-0.0206856 0.116058 0
-0.0213041 0.120077 0
-0.0217741 0.122991 0
-0.0222148 0.123845 0
-0.0227795 0.121642 0
-0.0236539 0.115473 0
-0.0250483 0.104642 0
-0.0271884 0.0887817 0
-0.0303066 0.0679423 0
-0.0346399 0.0426678 0
-0.0404439 0.0140025 0
-0.0480164 -0.0166652 0
-0.0577912 -0.048148 0
-0.0703541 -0.0809635 0
-0.0859762 -0.117465 0
-0.103679 -0.160749 0
-0.120319 -0.212138 0
-0.130272 -0.267713 0
-0.126309 -0.314361 0
-0.102338 -0.326373 0
-0.059321 -0.265094 0
-0.0169311 -0.0976494 0
-0.000509664 0.0268545 0
-0.00218127 0.0612446 0
-0.00472699 0.0810841 0
-0.00741845 0.0916378 0
-0.00979332 0.0970673 0
-0.0116124 0.100136 0
-0.0127765 0.102486 0
-0.0132613 0.104995 0
-0.0130782 0.108044 0
-0.0122576 0.111659 0
-0.0108463 0.115571 0
-0.00891665 0.119252 0
-0.0065805 0.121949 0
-0.0039972 0.122744 0
-0.00138188 0.120692 0
0.000987972 0.114927 0
0.00278227 0.104788 0
0.00363315 0.0899253 0
0.00314901 0.0704011 0
0.000925766 0.0467656 0
-0.0034416 0.020076 0
-0.0103383 -0.00826951 0
-0.020072 -0.0370353 0
-0.0331224 -0.0664628 0
-0.0502032 -0.0992627 0
-0.07134 -0.140112 0
-0.0944224 -0.193052 0
-0.114031 -0.257239 0
-0.121601 -0.321228 0
-0.107838 -0.35724 0
-0.0689634 -0.316119 0
-0.0216986 -0.136279 0
-0.000698036 0.0280622 0
-0.00277337 0.0637839 0
-0.00558847 0.0839057 0
-0.00818136 0.0941005 0
-0.0100582 0.0988563 0
-0.0110189 0.101127 0
-0.0110097 0.10265 0
-0.0100385 0.104345 0
-0.00813555 0.106609 0
-0.00534324 0.109481 0
-0.0017179 0.112712 0
0.00266197 0.115802 0
0.00767177 0.118053 0
0.0131119 0.118616 0
0.0186992 0.116617 0
0.0240696 0.111262 0
0.0287834 0.101945 0
0.032342 0.0883585 0
0.0342116 0.0705824 0
0.0338588 0.0491604 0
0.0308022 0.0251052 0
0.024669 -0.00026874 0
0.0152614 -0.0258948 0
0.00237855 -0.0516701 0
-0.0147016 -0.0798945 0
-0.0369348 -0.11611 0
-0.063891 -0.167015 0
-0.0914778 -0.23608 0
-0.11074 -0.315554 0
-0.109407 -0.37801 0
-0.0778754 -0.365757 0
-0.0269021 -0.18488 0
-0.00107036 0.0298306 0
-0.00394899 0.0669694 0
-0.00737523 0.0869615 0
-0.0100346 0.0962971 0
-0.0114385 0.0999404 0
-0.0114924 0.101057 0
-0.0102421 0.10146 0
-0.00776375 0.102085 0
-0.00412821 0.10333 0
0.000599136 0.10524 0
0.00635074 0.107576 0
0.0130351 0.109874 0
0.0205045 0.111502 0
0.0285249 0.111707 0
0.0367594 0.109705 0
0.0447685 0.104794 0
0.0520211 0.0964463 0
0.0579149 0.0844051 0
0.0618116 0.0687695 0
0.0630911 0.0500467 0
0.0612277 0.0291389 0
0.0558764 0.00718216 0
0.0468914 -0.0149531 0
0.0343077 -0.0371454 0
0.0179926 -0.061024 0
-0.00320952 -0.0915451 0
-0.0307804 -0.137053 0
-0.0632168 -0.206019 0
-0.092825 -0.296745 0
-0.105373 -0.385603 0
-0.0847504 -0.410317 0
-0.0321303 -0.243912 0
-0.00174765 0.0326486 0
-0.00602799 0.0713104 0
-0.0104873 0.0905061 0
-0.0133459 0.0982704 0
-0.0142263 0.100251 0
-0.0132518 0.0998258 0
-0.010641 0.0988301 0
-0.00657752 0.0981725 0
-0.00119064 0.09822 0
0.00542592 0.0990066 0
0.0131888 0.100295 0
0.0219917 0.101667 0
0.0316661 0.102565 0
0.0419488 0.10234 0
0.0524623 0.100323 0
0.0627142 0.0959152 0
0.0721111 0.088676 0
0.0799874 0.0784054 0
0.0856508 0.0652091 0
0.0884485 0.0495298 0
0.0878542 0.0321134 0
0.0835556 0.0138576 0
0.0754632 -0.00455111 0
0.0636504 -0.0231509 0
0.0481562 -0.0432092 0
0.0285078 -0.0685093 0
0.00303701 -0.107047 0
-0.0299587 -0.170593 0
-0.0666734 -0.265848 0
-0.0932063 -0.377419 0
-0.0873212 -0.445009 0
-0.0365598 -0.312602 0
-0.00294887 0.0373451 0
-0.0095198 0.0774652 0
-0.0154435 0.0947344 0
-0.0184692 0.0999263 0
-0.0185799 0.0995866 0
-0.0162936 0.0972298 0
-0.0120891 0.0946108 0
-0.00629133 0.0925307 0
0.00090368 0.0912799 0
0.00937775 0.090856 0
0.0190396 0.0910213 0
0.0297744 0.0914034 0
0.0413996 0.091529 0
0.0536336 0.0908598 0
0.0660767 0.0888473 0
0.0782109 0.0850051 0
0.0894184 0.0789816 0
0.0990165 0.0706254 0
0.10631 0.060032 0
0.110664 0.0475558 0
0.111583 0.0337629 0
0.108792 0.0192978 0
0.102258 0.00463463 0
0.0920726 -0.0103384 0
0.0782583 -0.0267132 0
0.0605288 -0.0476275 0
0.0378369 -0.0797665 0
0.00784597 -0.134887 0
-0.0307703 -0.226223 0
-0.0692277 -0.352054 0
-0.0817542 -0.463733 0
-0.0386159 -0.387778 0
-0.00505915 0.0453532 0
-0.0151663 0.0861352 0
-0.0227205 0.0995423 0
-0.0253931 0.100817 0
-0.0240358 0.0974496 0
-0.019807 0.0928518 0
-0.0135241 0.0885013 0
-0.0056641 0.0849823 0
0.00352439 0.0824448 0
0.0139215 0.08082 0
0.0254461 0.0798708 0
0.0379894 0.0792758 0
0.051372 0.0786487 0
0.0653146 0.0775636 0
0.079422 0.075593 0
0.0931865 0.0723607 0
0.106008 0.0675964 0
0.117237 0.0611842 0
0.126223 0.0531929 0
0.132391 0.0438738 0
0.135305 0.0336121 0
0.134729 0.0228155 0
0.130644 0.0117357 0
0.123179 0.000210432 0
0.112371 -0.0126391 0
0.0978778 -0.0294794 0
0.0787356 -0.0560804 0
0.0528385 -0.102685 0
0.0169092 -0.18388 0
-0.0284636 -0.310567 0
-0.0618724 -0.459284 0
-0.0354217 -0.461816 0
-0.0086331 0.0590454 0
-0.0235873 0.0975042 0
-0.0317395 0.10388 0
-0.0322271 0.0996395 0
-0.0276454 0.0926876 0
-0.0200428 0.0857824 0
-0.0105788 0.0798237 0