# vtk DataFile Version 2.0
Lid-driven cavity
ASCII
DATASET STRUCTURED_POINTS
DIMENSIONS 32 32 1
ORIGIN 0.015625 0.015625 0
SPACING 0.03125 0.03125 1
POINT_DATA 1024
SCALARS pressure double 1
LOOKUP_TABLE default
4.18325
4.16763
4.15603
4.15665
4.17215
4.20275
4.24805
4.3077
4.38162
4.46985
4.5724
4.68906
4.81916
4.96143
5.11385
5.27357
5.43705
5.59989
5.75711
5.90338
6.03361
6.14351
6.23024
6.29271
6.33177
6.34996
6.35114
6.33995
6.3214
6.30073
6.28343
6.275
4.19888
4.18279
4.17548
4.18016
4.19821
4.22992
4.27523
4.33408
4.40654
4.49272
4.59263
4.70604
4.83231
4.97019
5.11774
5.27225
5.43036
5.58789
5.74009
5.88183
6.00819
6.1151
6.19986
6.26155
6.30113
6.32116
6.32539
6.31827
6.3044
6.28833
6.27443
6.26656
4.21003
4.18841
4.18112
4.18755
4.2072
4.23971
4.28489
4.34282
4.41369
4.49777
4.59519
4.70588
4.82934
4.9645
5.10959
5.26201
5.41853
5.57497
5.72654
5.86792
5.99402
6.10055
6.1847
6.24556
6.28422
6.30357
6.30758
6.3008
6.28775
6.27252
6.25871
6.24914
4.20502
4.17735
4.16847
4.17521
4.1955
4.2282
4.2729
4.32966
4.39881
4.48077
4.57593
4.68446
4.80612
4.94014
5.08499
5.23824
5.39658
5.55573
5.71059
5.85544
5.98468
6.09353
6.17877
6.23932
6.2764
6.2933
6.29466
6.28541
6.27027
6.25325
6.23762
6.22576
4.17595
4.143
4.13218
4.13849
4.15868
4.191
4.23481
4.29014
4.35745
4.43738
4.53057
4.63751
4.75834
4.89265
5.03928
5.196
5.35928
5.52461
5.68647
5.83856
5.97453
6.08878
6.17737
6.23877
6.27424
6.28758
6.28428
6.27026
6.25072
6.22994
6.21125
6.19718
4.1169
4.07958
4.06694
4.0725
4.09212
4.12363
4.1662
4.2199
4.2853
4.36327
4.45475
4.56057
4.68126
4.81687
4.96673
5.12906
5.29989
5.4745
5.64692
5.81022
5.95706
6.08068
6.17593
6.24043
6.27518
6.28446
6.27492
6.25388
6.22778
6.20144
6.17857
6.16221
4.023
3.98209
3.96784
3.97251
3.99128
4.02164
4.06269
4.11453
4.17788
4.25381
4.34353
4.44821
4.56881
4.70586
4.85928
5.02814
5.20814
5.39439
5.58066
5.75941
5.92223
6.06073
6.16796
6.23991
6.27662
6.28258
6.26576
6.23552
6.20029
6.16621
6.13761
6.11827
3.89005
3.8461
3.83041
3.83411
3.85176
3.88064
3.9198
3.96938
4.03021
4.10351
4.1907
4.29326
4.41254
4.5496
4.70505
4.87888
5.06792
5.26665
5.46914
5.66763
5.85264
6.01384
6.1416
6.22905
6.274
6.2801
6.25641
6.21497
6.16745
6.12248
6.08571
6.06173
3.7143
3.6677
3.65065
3.65317
3.66934
3.69622
3.73282
3.77927
3.83644
3.90558
3.98824
4.08606
4.20072
4.33385
4.48684
4.66069
4.85508
5.06415
5.28305
5.50463
5.71882
5.91317
6.07447
6.19127
6.2569
6.27206
6.24554
6.19231
6.12885
6.06846
6.01954
5.98802
3.49242
3.44348
3.42495
3.42592
3.43995
3.46393
3.49674
3.53843
3.58973
3.65178
3.72599
3.81404
3.91782
4.03951
4.18148
4.34623
4.53602
4.74826
4.97946
5.22466
5.47436
5.71442
5.9273
6.09496
6.20306
6.2455
6.22767
6.16615
6.08375
6.00179
5.93465
5.89124
3.22158
3.1705
3.15024
3.14898
3.15984
3.17944
3.20646
3.24068
3.28247
3.33256
3.39196
3.46205
3.54476
3.64278
3.75972
3.90004
4.06864
4.26908
4.50117
4.76475
5.05303
5.35144
5.63812
5.8866
6.07091
6.17261
6.18774
6.13044
6.02975
5.91935
5.82557
5.76374
2.89958
2.84651
2.82405
2.81958
2.82573
2.83881
2.85711
2.87989
2.90687
2.93794
2.97328
3.01356
3.06043
3.11701
3.18836
3.2816
3.40546
3.56911
3.78013
4.0474
4.37008
4.73581
5.11964
5.48576
5.79281
6.00306
6.09416
6.06934
5.96007
5.816
5.68467
5.5951
2.52494
2.47001
2.44474
2.43576
2.43522
2.43898
2.44473
2.4509
2.4561
2.45892
2.45809
2.45305
2.4447
2.43638
2.43474
2.45025
2.49674
2.58997
2.74573
2.98907
3.33021
3.76317
4.26306
4.78575
5.27206
5.65808
5.89146
5.95079
5.85956
5.683
5.5012
5.37127
2.09718
2.0405
2.0117
1.99672
1.98721
1.97839
1.96711
1.9506
1.92584
1.8895
1.83824
1.76951
1.68287
1.58146
1.47355
1.37346
1.30141
1.28181
1.33969
1.51524
1.84294
2.32811
2.95095
3.66281
4.38744
5.02985
5.49569
5.72028
5.69983
5.5061
5.2617
5.0745
1.6169
1.55858
1.52554
1.50311
1.48233
1.45764
1.42474
1.37923
1.31599
1.22909
1.11234
0.960459
0.770858
0.545902
0.295164
0.0370902
-0.2007
-0.383222
-0.472599
-0.420922
-0.155796
0.346935
1.07959
1.99606
3.00815
3.98998
4.79595
5.29737
5.43455
5.26292
4.94952
4.68306
1.08581
1.02599
0.98819
0.957176
0.923294
0.880002
0.821556
0.741553
0.632241
0.484505
0.288579
0.0355992
-0.280007
-0.657488
-1.08658
-1.54491
-1.99698
-2.39571
-2.68727
-2.81614
-2.67898
-2.21478
-1.4116
-0.303453
1.01994
2.40916
3.66562
4.57871
4.99744
4.92089
4.54522
4.17125
0.50668
0.445518
0.402822
0.362825
0.315046
0.251747
0.165481
0.0475126
-0.112933
-0.328655
-0.613591
-0.980911
-1.44004
-1.99278
-2.62913
-3.32358
-4.03307
-4.69796
-5.24704
-5.60727
-5.66897
-5.31735
-4.51039
-3.25949
-1.64119
0.187557
1.98495
3.45043
4.30614
4.43792
4.02905
3.51381
-0.117056
-0.179378
-0.226472
-0.274652
-0.335428
-0.417964
-0.531636
-0.687735
-0.900289
-1.18606
-1.5635
-2.05061
-2.66133
-3.401
-4.26105
-5.21413
-6.21088
-7.17989
-8.03242
-8.67289
-8.98963
-8.83275
-8.11063
-6.80244
-4.95502
-2.70937
-0.326671
1.81165
3.2753
3.76917
3.38809
2.69537
-0.781811
-0.845128
-0.895234
-0.949102
-1.01958
-1.11758
-1.2546
-1.44459
-1.70488
-2.05616
-2.52146
-3.12369
-3.88173
-4.80516
-5.88808
-7.10305
-8.39652
-9.68749
-10.8713
-11.83
-12.4406
-12.5478
-12.0092
-10.7568
-8.79402
-6.21896
-3.27525
-0.393579
1.84003
2.88351
2.63297
1.73242
-1.48469
-1.54891
-1.59947
-1.65429
-1.7281
-1.83402
-1.98594
-2.20049
-2.49811
-2.90314
-3.44275
-4.14448
-5.03204
-6.11959
-7.40494
-8.86242
-10.4371
-12.0419
-13.5601
-14.8546
-15.7834
-16.1937
-15.9272
-14.853
-12.9218
-10.165
-6.76371
-3.14278
-0.013207
1.79003
1.82693
0.710161
-2.22462
-2.28978
-2.33672
-2.38486
-2.45185
-2.55378
-2.70733
-2.93183
-3.25048
-3.69065
-4.28289
-5.05851
-6.04539
-7.26208
-8.71062
-10.3688
-12.1834
-14.0657
-15.8923
-17.5129
-18.7661
-19.4958
-19.5501
-18.7645
-17.0196
-14.267
-10.5825
-6.31127
-2.21674
0.569406
1.12387
-0.168059
-3.0038
-3.07014
-3.10732
-3.13748
-3.1829
-3.26404
-3.40105
-3.616
-3.93441
-4.3858
-5.00294
-5.8196
-6.86659
-8.16596
-9.72392
-11.5229
-13.5141
-15.6118
-17.6925
-19.6003
-21.1609
-22.2067
-22.5922
-22.1643
-20.7381
-18.179
-14.4281
-9.66973
-4.60476
-0.600768
0.806141
-0.525921
-3.82981
-3.89774
-3.91599
-3.91189
-3.91542
-3.95362
-4.05122
-4.23317
-4.52677
-4.96258
-5.57406
-6.39574
-7.45969
-8.79026
-10.397
-12.2671
-14.3577
-16.59
-18.8474
-20.9776
-22.8029
-24.1427
-24.8482
-24.7839
-23.7604
-21.5491
-17.948
-12.909
-6.91941
-1.43816
1.31131
0.240385
-4.71878
-4.78851
-4.77376
-4.71203
-4.64627
-4.61355
-4.64466
-4.76763
-5.01079
-5.40452
-5.98172
-6.7764
-7.82038
-9.13828
-10.741
-12.6186
-14.7331
-17.0137
-19.3537
-21.6134
-23.6268
-25.2142
-26.2109
-26.4752
-25.8565
-24.0818
-20.8009
-15.6858
-8.84019
-1.57085
3.2422
3.01778
-5.70085
-5.77124
-5.70068
-5.54706
-5.37525
-5.23715
-5.17126
-5.20838
-5.37658
-5.70479
-6.22397
-6.96608
-7.96114
-9.23244
-10.7906
-12.6266
-14.7062
-16.9645
-19.3051
-21.6021
-23.7064
-25.4546
-26.6826
-27.23
-26.9386
-25.5836
-22.7054
-17.6667
-10.0181
-0.564635
7.36521
9.04672
-6.83089
-6.89576
-6.72954
-6.43197
-6.10439
-5.81934
-5.62352
-5.54876
-5.62068
-5.86481
-6.3085
-6.98032
-7.9072
-9.10995
-10.5976
-12.3611
-14.368
-16.5584
-18.8439
-21.1101
-23.2231
-25.0371
-26.4011
-27.1543
-27.1087
-26.0269
-23.4544
-18.5331
-10.0699
2.07759
14.6216
20.0375
-8.21173
-8.24836
-7.91108
-7.38673
-6.83536
-6.35431
-5.99513
-5.78601
-5.74605
-5.89452
-6.25336
-6.84647
-7.69685
-8.8221
-10.2289
-11.9075
-13.8263
-15.9286
-18.132
-20.3306
-22.4007
-24.208
-25.6134
-26.4643
-26.5566
-25.5884
-23.0542
-17.9221
-8.46773
7.03155
26.213
38.3845
-10.0503
-9.98112
-9.31781
-8.42896
-7.56036
-6.82806
-6.27556
-5.91701
-5.75824
-5.80858
-6.08262
-6.59873
-7.37548
-8.42694
-9.75727
-11.3553
-13.1896
-15.2057
-17.3252
-19.4474
-21.4541
-23.2146
-24.5902
-25.433
-25.5305
-24.5045
-21.675
-15.7163
-4.28272
15.5191
43.8856
67.5294
-12.807
-12.3603
-11.0287
-9.54092
-8.23148
-7.19386
-6.43027
-5.92112
-5.6497
-5.61148
-5.81212
-6.2639
-6.98087
-7.97364
-9.24375
-10.7784
-12.5459
-14.4927
-16.5427
-18.5978
-20.5412
-22.2399
-23.5448
-24.285
-24.2473
-22.9571
-19.4353
-11.8587
3.11291
29.9429
70.6307
112.365
-17.6236
-15.7758
-12.9975
-10.5357
-8.65649
-7.29273
-6.33464
-5.7011
-5.34617
-5.24876
-5.40486
-5.82048
-6.50525
-7.46642
-8.70296
-10.2003
-11.926
-13.8268
-15.8273
-17.8301
-19.7171
-21.3486
-22.5579
-23.1362
-22.7966
-21.0094
-16.2774
-5.97541
14.6184
52.3972
112.672
178.659
-27.4032
-20.1108
-14.3623
-10.5772
-8.13453
-6.55264
-5.52835
-4.89281
-4.56068
-4.49408
-4.68168
-5.12593
-5.83434
-6.8125
-8.05804
-9.55541
-11.2717
-13.1537
-15.1264
-17.0921
-18.9297
-20.4901
-21.5836
-21.9489
-21.1862
-18.5779
-12.0134
2.15919
30.5472
84.2708
179.541
313.4
-54.0032
-20.4172
-9.96029
-6.1885
-4.4914
-3.5915
-3.09119
-2.85014
-2.81895
-2.98642
-3.35918
-3.95145
-4.77837
-5.85047
-7.16864
-8.71968
-10.4727
-12.3762
-14.3566
-16.3166
-18.1326
-19.647
-20.6472
-20.8174
-19.6247
-16.0207
-7.51222
10.3084
45.6023
114.383
254.788
572.466
VECTORS velocity double
3.42868e-05 -3.42869e-05 0
3.413e-06 6.51606e-05 0
-0.000230664 0.000168917 0
-0.000637165 0.000237583 0
-0.00114962 0.000274869 0
-0.00171755 0.000293059 0
-0.00231188 0.000301277 0
-0.0029166 0.000303441 0
-0.00351955 0.000299512 0
-0.00410634 0.000287275 0
-0.00465736 0.00026374 0
-0.00514718 0.000226087 0
-0.00554558 0.000172311 0
-0.00581962 0.000101724 0
-0.00593668 1.53374e-05 0
-0.00586775 -8.42708e-05 0
-0.00559141 -0.000192067 0
-0.00509919 -0.000300155 0
-0.00440036 -0.000398675 0
-0.0035251 -0.000476585 0
-0.00252555 -0.000522967 0
-0.00147364 -0.000528934 0
-0.000454864 -0.000489846 0
0.00044229 -0.000407308 0
0.00113992 -0.000290324 0
0.00158305 -0.000152801 0
0.00174804 -1.21951e-05 0
0.00164691 0.000113324 0
0.00132587 0.000207723 0
0.000866121 0.000252022 0
0.000394144 0.000219954 0
8.70948e-05 8.70946e-05 0
-7.55198e-05 6.94582e-06 0
-0.000465757 0.000445038 0
-0.00130578 0.000863142 0
-0.00250147 0.00114554 0
-0.00392737 0.00130527 0
-0.0054812 0.00138442 0
-0.00709236 0.00141542 0
-0.00871114 0.0014128 0
-0.0102949 0.00137688 0
-0.0117983 0.00130003 0
-0.0131682 0.0011719 0
-0.0143435 0.000983115 0
-0.0152576 0.000727811 0
-0.0158429 0.000405474 0
-0.0160366 2.23593e-05 0
-0.0157886 -0.000408177 0
-0.015069 -0.00086409 0
-0.0138747 -0.0013147 0
-0.0122349 -0.00172274 0
-0.010216 -0.00204674 0
-0.00792285 -0.00224547 0
-0.00549679 -0.0022844 0
-0.00310639 -0.00214357 0
-0.000932016 -0.00182512 0
0.000856197 -0.00135836 0
0.0021261 -0.000797789 0
0.0028067 -0.000212806 0
0.00290092 0.000320845 0
0.00249081 0.000731358 0
0.00173549 0.000943444 0
0.0008726 0.000863403 0
0.000224553 0.000398742 0
-0.000228052 0.000310517 0
-0.00107027 0.00137393 0
-0.00258286 0.00228687 0
-0.00456433 0.00289896 0
-0.00683616 0.00324959 0
-0.00926301 0.00342077 0
-0.0117472 0.00347445 0
-0.0142134 0.00343869 0
-0.0165934 0.00331475 0
-0.0188169 0.00308902 0
-0.0208074 0.00274339 0
-0.022483 0.00226253 0
-0.0237592 0.00163876 0
-0.0245549 0.000875459 0
-0.0247987 -1.015e-05 0
-0.0244374 -0.00098491 0
-0.0234433 -0.0020011 0
-0.0218177 -0.00299759 0
-0.0195965 -0.00390085 0
-0.0168557 -0.0046284 0
-0.0137164 -0.0050962 0
-0.0103457 -0.00523046 0
-0.00695074 -0.00498283 0
-0.00376443 -0.00434653 0
-0.00102055 -0.00336904 0
0.00107889 -0.00215645 0
0.00240402 -0.000859881 0
0.00292668 0.000351046 0
0.00273095 0.00130699 0
0.00200868 0.00184539 0
0.00105446 0.00177857 0
0.000281396 0.00090469 0
-0.000383087 0.000921656 0
-0.00168612 0.00290804 0
-0.00387256 0.00445179 0
-0.00661159 0.00545453 0
-0.00966581 0.00602008 0
-0.0128719 0.00628324 0
-0.016114 0.00633827 0
-0.0193 0.00622699 0
-0.0223457 0.00595213 0
-0.0251664 0.00549592 0
-0.0276748 0.00483538 0
-0.0297814 0.00395274 0
-0.0313987 0.00284205 0
-0.0324446 0.00151377 0
-0.0328478 -1.46617e-06 0
-0.0325542 -0.00164845 0
-0.0315308 -0.0033551 0
-0.0297675 -0.00503248 0
-0.0272832 -0.00657144 0
-0.0241367 -0.00784521 0
-0.0204365 -0.00871883 0
-0.0163491 -0.00906596 0
-0.0120989 -0.00879247 0
-0.0079581 -0.00786399 0
-0.0042221 -0.00633146 0
-0.00116988 -0.00434569 0
0.000985465 -0.00215112 0
0.00215239 -4.72964e-05 0
0.00239303 0.00166042 0
0.00191446 0.0026928 0
0.00105365 0.00274619 0
0.000288852 0.00147494 0
-0.000529913 0.00183466 0
-0.002271 0.00503916 0
-0.00509572 0.00733183 0
-0.0085423 0.00876009 0
-0.0123135 0.00953998 0
-0.0162213 0.00987717 0
-0.0201378 0.009903 0
-0.0239638 0.00967416 0
-0.0276097 0.00919661 0
-0.030989 0.00845145 0
-0.0340153 0.00741448 0
-0.0366036 0.00606865 0
-0.0386716 0.00441138 0
-0.0401407 0.00245944 0
-0.040938 0.000253291 0
-0.0409973 -0.00213739 0
-0.040262 -0.00462487 0
-0.0386868 -0.00710128 0
-0.0362479 -0.00942582 0
-0.0329602 -0.011425 0
-0.0288964 -0.0129031 0
-0.0242021 -0.0136634 0
-0.0191058 -0.0135415 0
-0.0139151 -0.0124464 0
-0.00899551 -0.0104046 0
-0.00472632 -0.00759397 0
-0.00143445 -0.00435006 0
0.00067996 -0.00112969 0
0.00161284 0.00156929 0
0.00157449 0.00330084 0
0.000947816 0.00362562 0
0.000272165 0.00203595 0
-0.000665886 0.00303045 0
-0.00281141 0.00772998 0
-0.00622323 0.0108776 0
-0.0103182 0.0127559 0
-0.014745 0.0137421 0
-0.0192957 0.0141335 0
-0.0238385 0.014106 0
-0.0282759 0.0137345 0
-0.0325251 0.0130314 0
-0.0365089 0.0119797 0
-0.040153 0.0105565 0
-0.0433834 0.0087454 0
-0.0461247 0.00654393 0
-0.048297 0.0039683 0
-0.0498134 0.00105807 0
-0.0505786 -0.00211762 0
-0.0504898 -0.00546877 0
-0.0494433 -0.00887904 0
-0.0473502 -0.0121801 0
-0.0441605 -0.015148 0
-0.0398911 -0.0175134 0
-0.0346501 -0.0189883 0
-0.0286556 -0.0193074 0
-0.0222427 -0.0182842 0
-0.0158511 -0.0158781 0
-0.00998273 -0.012258 0
-0.00512354 -0.00783708 0
-0.00163444 -0.00324617 0
0.000352599 0.000765849 0
0.00100775 0.00348749 0
0.00076446 0.00430895 0
0.000242311 0.00255043 0
-0.000790166 0.00448651 0
-0.003303 0.0109323 0
-0.00724637 0.0150304 0
-0.0119307 0.0173824 0
-0.0169606 0.0185722 0
-0.0221166 0.0190103 0
-0.0272712 0.0189266 0
-0.0323395 0.0184197 0
-0.0372558 0.0175117 0
-0.0419626 0.01619 0
-0.0464035 0.0144312 0
-0.0505166 0.0122143 0
-0.0542271 0.00952685 0
-0.0574401 0.00637063 0
-0.0600359 0.00276804 0
-0.0618692 -0.00122919 0
-0.0627738 -0.0055414 0
-0.0625737 -0.0100529 0
-0.0611015 -0.0145716 0
-0.0582297 -0.018818 0
-0.0539055 -0.022437 0
-0.0481835 -0.0250278 0
-0.0412532 -0.0261928 0
-0.0334582 -0.0256065 0
-0.0252998 -0.0231058 0
-0.0174081 -0.0187904 0
-0.0104643 -0.0131077 0
-0.00506251 -0.0068664 0
-0.00153803 -0.00112545 0
0.0001636 0.003022 0
0.0004975 0.00468382 0
0.000201233 0.00299397 0
-0.000901868 0.00617854 0
-0.003743 0.0145942 0
-0.00816166 0.0197305 0
-0.0133796 0.0225847 0
-0.0189696 0.0239897 0
-0.0247108 0.0244899 0
-0.0304892 0.0243799 0
-0.0362424 0.0237878 0
-0.041931 0.0227485 0
-0.0475227 0.0212518 0
-0.0529799 0.0192675 0
-0.0582462 0.0167574 0
-0.0632343 0.0136823 0
-0.0678161 0.01001 0
-0.0718193 0.00572772 0
-0.0750311 0.000856161 0
-0.0772127 -0.00454053 0
-0.0781158 -0.0103507 0
-0.0774965 -0.0163653 0
-0.0751461 -0.0222465 0
-0.0709347 -0.027544 0
-0.0648483 -0.0317291 0
-0.0570242 -0.0342459 0
-0.0477839 -0.0345886 0
-0.0376566 -0.0324094 0
-0.0273776 -0.0276575 0
-0.0178322 -0.0207298 0
-0.0099096 -0.0125686 0
-0.00426235 -0.00459501 0
-0.00105981 0.0015874 0
0.000119218 0.0046055 0
0.000146284 0.00334149 0
-0.000999349 0.00807976 0
-0.00412659 0.0186614 0
-0.00896248 0.0249179 0
-0.0146595 0.0283123 0
-0.0207714 0.0299641 0
-0.0270858 0.0305711 0
-0.0335114 0.0305029 0
-0.0400157 0.0299224 0
-0.0465904 0.0288772 0
-0.0532291 0.0273534 0
-0.0599067 0.0253006 0
-0.0665608 0.0226447 0
-0.0730755 0.0192978 0
-0.0792735 0.0151742 0
-0.0849172 0.0102104 0
-0.0897212 0.00438926 0
-0.0933725 -0.00224071 0
-0.0955589 -0.00956099 0
-0.0959756 -0.0173578 0
-0.094341 -0.025239 0
-0.0904457 -0.0326582 0
-0.0841943 -0.0389528 0
-0.0756459 -0.0433948 0
-0.065059 -0.045267 0
-0.0529389 -0.0439785 0
-0.0400725 -0.0392338 0
-0.0275167 -0.0312547 0
-0.0164824 -0.0210006 0
-0.0080541 -0.0102385 0
-0.00278642 -0.00123931 0
-0.000410349 0.00387711 0
7.23454e-05 0.00356012 0
-0.00107985 0.010159 0
-0.00444498 0.0230746 0
-0.0096343 0.0305299 0
-0.0157512 0.0345141 0
-0.0223428 0.0364659 0
-0.0292129 0.0372538 0
-0.0362992 0.037332 0
-0.0436026 0.0369009 0
-0.0511457 0.0360165 0
-0.0589419 0.0346489 0
-0.0669685 0.0327093 0
-0.0751437 0.0300653 0
-0.0833114 0.0265597 0
-0.091238 0.0220368 0
-0.0986212 0.0163746 0
-0.105109 0.00951685 0
-0.110325 0.00149921 0
-0.113902 -0.007538 0
-0.115492 -0.0173741 0
-0.114763 -0.0275856 0
-0.111431 -0.0375388 0
-0.10531 -0.0464447 0
-0.0963565 -0.0534052 0
-0.0847218 -0.0574781 0
-0.0708233 -0.0577859 0
-0.0554192 -0.0536969 0
-0.039661 -0.0451056 0
-0.0250484 -0.0327966 0
-0.0131726 -0.0187465 0
-0.00517488 -0.00599672 0
-0.00115088 0.00223444 0
-3.16231e-05 0.00360084 0
-0.00113942 0.0123782 0
-0.00468494 0.027766 0
-0.0101531 0.036496 0
-0.0166188 0.0411306 0
-0.0236325 0.0434546 0
-0.031019 0.0445217 0
-0.0387461 0.0448776 0
-0.0468466 0.0447593 0
-0.0553677 0.0442223 0
-0.0643331 0.0432047 0
-0.0737111 0.0415582 0
-0.0833919 0.0390723 0
-0.0931763 0.0355049 0
-0.10278 0.030622 0
-0.111849 0.0242415 0
-0.119982 0.0162711 0
-0.126759 0.00673807 0
-0.131764 -0.00419567 0
-0.134624 -0.0162666 0
-0.134983 -0.0290624 0
-0.132494 -0.0418826 0
-0.126882 -0.0538335 0
-0.117985 -0.0638676 0
-0.105807 -0.0708281 0
-0.0906097 -0.0735321 0
-0.0730253 -0.0709393 0
-0.0541841 -0.0624627 0
-0.0357748 -0.0484616 0
-0.0198902 -0.0308418 0
-0.00844378 -0.0133457 0
-0.00219702 -0.000687386 0
-0.000181414 0.0033878 0
-0.0011732 0.0146908 0
-0.0048296 0.0326553 0
-0.0104865 0.0427317 0
-0.0172115 0.0480856 0
-0.024564 0.0508659 0
-0.0323901 0.0523231 0
-0.0406843 0.0530976 0
-0.0495035 0.053459 0
-0.0589098 0.05345 0
-0.0689267 0.0529592 0
-0.079506 0.0517611 0
-0.0905088 0.049553 0
-0.101701 0.0460007 0
-0.112763 0.0407919 0
-0.12331 0.0336874 0
-0.132915 0.0245637 0
-0.141135 0.013442 0
-0.147532 0.000502407 0
-0.151712 -0.0139251 0
-0.153306 -0.0294508 0
-0.151941 -0.0453476 0
-0.147268 -0.0606537 0
-0.138998 -0.0742142 0
-0.126962 -0.0846953 0
-0.111201 -0.0906238 0
-0.0921197 -0.0905132 0
-0.0706863 -0.0831633 0
-0.048619 -0.0682376 0
-0.0284058 -0.0471635 0
-0.0128258 -0.0240504 0
-0.00366847 -0.00538673 0
-0.000401657 0.00280473 0
-0.00117615 0.0170402 0
-0.00486086 0.037647 0
-0.0105987 0.0491348 0
-0.0174697 0.0552785 0
-0.0250453 0.0586011 0
-0.0331874 0.0605561 0
-0.0419083 0.0618795 0
-0.0512783 0.0628663 0
-0.0613632 0.0635339 0
-0.0721783 0.0637071 0
-0.0836575 0.0630717 0
-0.0956402 0.0612277 0
-0.107873 0.0577504 0
-0.120022 0.052254 0
-0.131699 0.0444487 0
-0.142475 0.0341835 0
-0.151907 0.0214746 0
-0.159559 0.00651869 0
-0.165014 -0.0103062 0
-0.167919 -0.028571 0
-0.167917 -0.0475933 0
-0.164608 -0.0663908 0
-0.157593 -0.0837621 0
-0.146511 -0.098265 0
-0.131135 -0.108191 0
-0.111544 -0.111618 0
-0.0883924 -0.106644 0
-0.0632291 -0.0919875 0
-0.0387364 -0.0681194 0
-0.0185098 -0.0389011 0
-0.00570227 -0.012501 0
-0.000726598 0.00167648 0
-0.001144 0.0193603 0
-0.00476284 0.0426304 0
-0.0104564 0.0555828 0
-0.0173366 0.0625817 0
-0.0249853 0.0665222 0
-0.0332712 0.069063 0
-0.0422118 0.0710339 0
-0.0518784 0.0727485 0
-0.0623309 0.0741891 0
-0.0735724 0.0751085 0
-0.0855235 0.0751008 0
-0.098014 0.0736718 0
-0.110789 0.0703139 0
-0.123526 0.0645769 0
-0.13585 0.056127 0
-0.147359 0.0447897 0
-0.157635 0.0305766 0
-0.166264 0.0136969 0
-0.172849 -0.00544334 0
-0.177063 -0.0263156 0
-0.178583 -0.0483299 0
-0.177007 -0.0705391 0
-0.171859 -0.0917769 0
-0.162599 -0.110592 0
-0.148697 -0.125142 0
-0.129826 -0.133129 0
-0.106178 -0.131932 0
-0.0789153 -0.119126 0
-0.0506442 -0.0937446 0
-0.0255757 -0.058571 0
-0.00842204 -0.0227922 0
-0.00118994 -0.000240063 0
-0.00107452 0.0215788 0
-0.00452609 0.0474823 0
-0.0100375 0.0619358 0
-0.0167705 0.069842 0
-0.0243137 0.0744539 0
-0.0325302 0.0776337 0
-0.0414291 0.0803026 0
-0.0510708 0.0827882 0
-0.0615022 0.0850334 0
-0.0727148 0.0867184 0
-0.0846235 0.0873506 0
-0.0970626 0.0863515 0
-0.109795 0.0831416 0
-0.122525 0.0772164 0
-0.134919 0.068206 0
-0.146616 0.0559168 0
-0.157249 0.0403577 0
-0.166456 0.021751 0
-0.173897 0.000529642 0
-0.179283 -0.022689 0
-0.182348 -0.0473708 0
-0.182753 -0.0726694 0
-0.179996 -0.0975518 0
-0.173386 -0.120687 0
-0.162094 -0.140241 0
-0.145323 -0.153672 0
-0.122675 -0.157686 0
-0.0947016 -0.148608 0
-0.0636274 -0.123608 0
-0.0339478 -0.0834563 0
-0.0119127 -0.0370956 0
-0.00182573 -0.00325573 0
-0.000968552 0.0236219 0
-0.00415154 0.0520738 0
-0.00933858 0.0680427 0
-0.0157579 0.0768875 0
-0.0229995 0.0821931 0
-0.0309082 0.0860197 0
-0.0394713 0.0893786 0
-0.0487286 0.0926112 0
-0.0587103 0.0956234 0
-0.0693991 0.0980298 0
-0.0807137 0.0992624 0
-0.0925067 0.0986719 0
-0.104573 0.0956199 0
-0.116663 0.0895586 0
-0.128496 0.0800901 0
-0.139774 0.0670083 0
-0.1502 0.0503244 0
-0.159487 0.0302782 0
-0.167376 0.00733266 0
-0.173639 -0.0178434 0
-0.17811 -0.0446798 0
-0.180569 -0.0724968 0
-0.180554 -0.100497 0
-0.177287 -0.127619 0
-0.169665 -0.152224 0
-0.156406 -0.171719 0
-0.136415 -0.182279 0
-0.109433 -0.178971 0
-0.076973 -0.156779 0
-0.0433935 -0.113544 0
-0.0162176 -0.0562191 0
-0.00267771 -0.00775917 0
-0.000830936 0.0254214 0
-0.00365373 0.0562801 0
-0.00838166 0.0737514 0
-0.0143232 0.0835397 0
-0.0210651 0.0895243 0
-0.0284227 0.0939548 0
-0.0363503 0.0979342 0
-0.0448598 0.101822 0
-0.0539635 0.105498 0
-0.0636404 0.108521 0
-0.0738218 0.110267 0
-0.0843903 0.110029 0
-0.0951853 0.107124 0
-0.106013 0.100972 0
-0.116659 0.0911551 0
-0.1269 0.0774618 0
-0.136518 0.0599148 0
-0.145322 0.0387796 0
-0.153155 0.0145532 0
-0.159885 -0.0120713 0
-0.16547 -0.0403956 0
-0.169852 -0.0699407 0
-0.172688 -0.10023 0
-0.173207 -0.130633 0
-0.17011 -0.159929 0
-0.161656 -0.185728 0
-0.146003 -0.203914 0
-0.121905 -0.208415 0
-0.089843 -0.191856 0
-0.0535569 -0.148332 0
-0.0213589 -0.0808046 0
-0.00381774 -0.0142546 0
-0.000670834 0.0269232 0
-0.00306253 0.0599928 0
-0.00721768 0.0789218 0
-0.0125348 0.089628 0
-0.0185942 0.0962373 0
-0.0251734 0.101179 0
-0.032186 0.105651 0
-0.0396123 0.110042 0
-0.0474476 0.114217 0
-0.0556722 0.117703 0
-0.0642387 0.119833 0
-0.073069 0.119862 0
-0.082057 0.117075 0
-0.0910747 0.110868 0
-0.0999797 0.100811 0
-0.108627 0.0866936 0
-0.116884 0.0685585 0
-0.124653 0.0467095 0
-0.131891 0.0216939 0
-0.138616 -0.00575697 0
-0.14491 -0.0348301 0
-0.150868 -0.0651675 0
-0.156366 -0.0966691 0
-0.160761 -0.12928 0
-0.162694 -0.162446 0
-0.160059 -0.1943 0
-0.150276 -0.220778 0
-0.130996 -0.234929 0
-0.101369 -0.22703 0
-0.0640055 -0.186808 0
-0.0273485 -0.111184 0
-0.00534626 -0.0234186 0
-0.000501675 0.0280957 0
-0.0024235 0.0631338 0
-0.0059279 0.0834403 0
-0.0105061 0.0950048 0
-0.0157312 0.102145 0
-0.021339 0.107458 0
-0.0271994 0.112244 0
-0.0332602 0.116935 0
-0.0395027 0.121401 0
-0.0459139 0.125155 0
-0.0524747 0.127508 0
-0.0591543 0.127696 0
-0.0659097 0.124984 0
-0.0726868 0.118753 0
-0.0794241 0.108567 0
-0.0860606 0.0942204 0
-0.0925489 0.0757771 0
-0.0988773 0.0535886 0
-0.105098 0.0282732 0
-0.111349 0.00063973 0
-0.117838 -0.0284434 0
-0.124837 -0.0585971 0
-0.132494 -0.0900851 0
-0.140432 -0.12353 0
-0.147417 -0.159278 0
-0.151159 -0.196361 0
-0.148445 -0.231213 0
-0.13578 -0.256439 0
-0.110736 -0.260191 0
-0.0742745 -0.227472 0
-0.0341788 -0.147272 0
-0.00737318 -0.0361381 0
-0.000340782 0.0289381 0
-0.00179723 0.0656696 0
-0.00462308 0.0872347 0
-0.00839389 0.0995595 0
-0.0126761 0.107098 0
-0.0171661 0.112603 0
-0.0216922 0.117486 0
-0.0261738 0.122236 0
-0.0305822 0.126751 0
-0.0349167 0.130551 0
-0.0391914 0.132948 0
-0.0434288 0.133173 0
-0.0476553 0.130488 0
-0.0518979 0.124269 0
-0.0561848 0.114076 0
-0.0605472 0.0997104 0
-0.0650263 0.0812544 0
-0.0696873 0.0591006 0
-0.0746456 0.0339401 0
-0.0801009 0.00667894 0
-0.0863491 -0.0217456 0
-0.0938098 -0.0508346 0
-0.102896 -0.0811049 0
-0.113619 -0.113849 0
-0.125103 -0.15049 0
-0.135164 -0.191347 0
-0.140186 -0.233919 0
-0.135601 -0.270983 0
-0.117234 -0.289059 0
-0.0838943 -0.268407 0
-0.0418024 -0.188525 0
-0.00999092 -0.0535022 0
-0.000209089 0.029488 0
-0.00125869 0.0676258 0
-0.00344206 0.0902878 0
-0.00639383 0.103229 0
-0.00967524 0.110992 0
-0.012952 0.116476 0
-0.016021 0.121208 0
-0.0187816 0.125756 0
-0.0212025 0.130061 0
-0.0232999 0.133673 0
-0.0251244 0.135925 0
-0.0267535 0.136063 0
-0.0282854 0.133357 0
-0.0298315 0.127189 0
-0.0315139 0.117126 0
-0.0334655 0.102975 0
-0.0358269 0.0848303 0
-0.0387466 0.0631054 0
-0.0423909 0.0385379 0
-0.0469717 0.0121172 0
-0.0527891 -0.0151183 0
-0.0602911 -0.0424991 0
-0.070053 -0.0705925 0
-0.0825069 -0.101185 0
-0.0973767 -0.1368 0
-0.112973 -0.17938 0
-0.125679 -0.228156 0
-0.130099 -0.27691 0
-0.120267 -0.311331 0
-0.0923861 -0.307356 0
-0.050111 -0.233943 0
-0.013257 -0.0767501 0
-0.000131656 0.0298288 0
-0.000898561 0.0691016 0
-0.00255238 0.0926492 0
-0.00473777 0.106005 0
-0.00701174 0.113771 0
-0.00902706 0.118988 0
-0.0105683 0.123306 0
-0.0115307 0.127381 0
-0.0118913 0.131217 0
-0.0116877 0.134411 0
-0.0110073 0.136332 0
-0.00998032 0.136258 0
-0.00877433 0.133487 0
-0.00758088 0.127411 0
-0.00661429 0.117619 0
-0.00611282 0.103932 0
-0.00632616 0.0864483 0
-0.00750512 0.065586 0
-0.0098906 0.0420872 0
-0.0137085 0.0169666 0
-0.0191941 -0.00866472 0
-0.0266521 -0.0339926 0
-0.0365894 -0.0593997 0
-0.0497162 -0.0867971 0
-0.0664724 -0.119562 0
-0.0861002 -0.161394 0
-0.105581 -0.213955 0
-0.119179 -0.273094 0
-0.119305 -0.324852 0
-0.0992113 -0.341811 0
-0.0589023 -0.282073 0
-0.0171848 -0.107192 0
-0.000140117 0.0301005 0
-0.000829203 0.0702858 0
-0.00215564 0.0944453 0
-0.0036939 0.107932 0
-0.00499792 0.115422 0
-0.00573701 0.120092 0
-0.00571495 0.123721 0
-0.00484746 0.127061 0
-0.00313507 0.130186 0
-0.000642664 0.132746 0
0.00250863 0.134164 0
0.00614161 0.133766 0
0.0100275 0.130888 0
0.0138908 0.124953 0
0.0174197 0.115581 0
0.0202783 0.10261 0
0.0221161 0.0861459 0
0.0225865 0.066597 0
0.0213714 0.0446767 0
0.018208 0.0213584 0
0.0129104 -0.00227321 0
0.00537829 -0.0253941 0
-0.00461231 -0.0480704 0
-0.0177024 -0.0719096 0
-0.0348451 -0.100551 0
-0.0564868 -0.139136 0
-0.080937 -0.192282 0
-0.102938 -0.259168 0
-0.113784 -0.327805 0
-0.103656 -0.36908 0
-0.0678041 -0.330964 0
-0.0217229 -0.1461 0
-0.000279077 0.0305197 0
-0.00119978 0.0714764 0
-0.00250184 0.0958832 0
-0.00357249 0.109103 0
-0.00397014 0.115952 0
-0.00342774 0.119758 0
-0.00181435 0.12242 0
0.000903436 0.124777 0
0.00468616 0.126974 0
0.00943087 0.128721 0
0.0149743 0.129495 0
0.0210923 0.128684 0
0.0274989 0.125678 0
0.0338481 0.119951 0
0.0397467 0.111156 0
0.0447711 0.0991521 0
0.048484 0.0840529 0
0.0504587 0.066245 0
0.0503144 0.0463881 0
0.0477605 0.0253644 0
0.0426436 0.00413533 0
0.0349668 -0.0165938 0
0.0247939 -0.0367072 0
0.0119297 -0.0573184 0
-0.00457255 -0.0814969 0
-0.0261663 -0.114954 0
-0.0530432 -0.165136 0
-0.0815739 -0.235782 0
-0.102963 -0.318955 0
-0.104641 -0.386379 0
-0.0761202 -0.378038 0
-0.0267023 -0.194525 0
-0.000620094 0.0314189 0
-0.00222739 0.0731052 0
-0.00391647 0.0972455 0
-0.00473669 0.109632 0
-0.00428345 0.115368 0
-0.00242852 0.117945 0
0.000832101 0.119359 0
0.00543733 0.120515 0
0.0112809 0.12161 0
0.0182132 0.122408 0
0.0260308 0.122447 0
0.0344672 0.121178 0
0.0431877 0.118057 0
0.0517915 0.112619 0
0.059824 0.104557 0
0.0667969 0.0937537 0
0.0722125 0.0803229 0
0.0755951 0.0646177 0
0.076534 0.0472207 0
0.0747345 0.0288853 0
0.0700636 0.0104021 0
0.0625404 -0.00766052 0
0.0522933 -0.0252205 0
0.0393804 -0.043028 0
0.0234507 -0.0633553 0
0.00323351 -0.0912849 0
-0.0232431 -0.135452 0
-0.0553129 -0.204866 0
-0.0857894 -0.298006 0
-0.100467 -0.390972 0
-0.082566 -0.419866 0
-0.0317265 -0.252954 0
-0.00128975 0.0333287 0
-0.00425332 0.0757662 0
-0.00683986 0.0988601 0
-0.00760804 0.109606 0
-0.00629071 0.113624 0
-0.00302044 0.114564 0
0.00199585 0.114463 0
0.00855494 0.114247 0
0.0164628 0.114127 0
0.0255188 0.113903 0
0.0354834 0.11317 0
0.046057 0.111445 0
0.056871 0.108255 0
0.0674889 0.1032 0
0.077419 0.0960139 0
0.0861375 0.0866048 0
0.0931179 0.0750757 0
0.097868 0.0617321 0
0.0999749 0.0470603 0
0.0991536 0.0316665 0
0.0952833 0.016162 0
0.0884024 0.000983712 0
0.0786377 -0.0138529 0
0.0660983 -0.0289433 0
0.0506829 -0.046095 0
0.0317213 -0.0693663 0
0.00746393 -0.106637 0
-0.0243422 -0.169805 0
-0.0608237 -0.266109 0
-0.0885122 -0.380504 0
-0.084859 -0.451889 0
-0.0359747 -0.320655 0
-0.00252098 0.0371395 0
-0.00782749 0.0802256 0
-0.0118519 0.101012 0
-0.0126171 0.108988 0
-0.0102417 0.110549 0
-0.00530728 0.109434 0
0.00167034 0.107599 0
0.0103092 0.105913 0
0.0203216 0.104541 0
0.0314611 0.103293 0
0.043463 0.101813 0
0.0560106 0.0996811 0
0.0687203 0.096495 0
0.0811429 0.0919188 0
0.0927771 0.0857303 0
0.103094 0.0778525 0
0.111572 0.0683701 0
0.117731 0.0575284 0
0.121181 0.0457069 0
0.121661 0.0333622 0
0.119063 0.0209338 0
0.113441 0.00871525 0
0.104941 -0.00331929 0
0.0936747 -0.0156716 0
0.0795764 -0.0298531 0
0.0621923 -0.0492626 0
0.0402952 -0.080586 0
0.0114632 -0.135218 0
-0.0262528 -0.226499 0
-0.0649845 -0.353694 0
-0.079139 -0.468198 0
-0.0378699 -0.394499 0
-0.00472727 0.0443877 0
-0.0137657 0.0873223 0
-0.0195345 0.103708 0
-0.0198915 0.107413 0
-0.0158572 0.105714 0
-0.00871586 0.102194 0
0.000623697 0.0985222 0
0.0115979 0.0953763 0
0.0238496 0.0928126 0
0.0371098 0.0906218 0
0.0511118 0.0884804 0
0.0655452 0.0860324 0
0.0800375 0.0829417 0
0.0941545 0.0789325 0
0.107416 0.0738211 0
0.119321 0.0675391 0
0.129384 0.0601435 0
0.137169 0.051811 0
0.142331 0.042812 0
0.144647 0.0334616 0
0.144033 0.0240453 0
0.140536 0.0147229 0
0.134298 0.0054117 0
0.125497 -0.00433576 0
0.114071 -0.0156645 0
0.0995233 -0.0315192 0
0.0807356 -0.0576446 0
0.0554339 -0.104026 0
0.0202591 -0.1848 0
-0.0248241 -0.311577 0
-0.0592337 -0.46175 0
-0.0345403 -0.466909 0
-0.00850266 0.0576177 0
-0.0227931 0.0974213 0
-0.0294781 0.106063 0
-0.0278025 0.10374 0
-0.0205718 0.0981224 0
-0.0100163 0.0920884 0
0.0025666 0.0867051 0
0.0164987 0.0822872 0
0.0314218 0.0787269 0
0.0470963 0.0757729 0
0.0632957 0.073128 0
0.079754 0.0704931 0
0.0961466 0.0675961 0
0.112092 0.0642155 0
0.127169 0.0601998 0
0.140942 0.0554823 0