# vtk DataFile Version 2.0
Lid-driven cavity
ASCII
DATASET STRUCTURED_POINTS
DIMENSIONS 32 32 1
ORIGIN 0.015625 0.015625 0
SPACING 0.03125 0.03125 1
POINT_DATA 1024
SCALARS pressure double 1
LOOKUP_TABLE default
3.46297
3.44919
3.44024
3.44343
3.46106
3.49324
3.53956
3.59963
3.67326
3.76039
3.86091
3.97451
4.10052
4.23775
4.38439
4.53794
4.69528
4.85265
5.0057
5.14975
5.2802
5.39305
5.4854
5.55577
5.60431
5.63265
5.64369
5.64118
5.62941
5.61309
5.59752
5.58858
3.47676
3.46261
3.45749
3.46425
3.48408
3.51719
3.56347
3.62282
3.69519
3.78056
3.87885
3.98973
4.11253
4.24609
4.38865
4.5378
4.69058
4.84337
4.99204
5.13206
5.25897
5.36894
5.45922
5.52846
5.57692
5.60633
5.61956
5.62025
5.61244
5.60031
5.58807
5.57962
3.48522
3.46624
3.4612
3.46951
3.49075
3.52458
3.57081
3.62944
3.70055
3.78427
3.88059
3.98933
4.10993
4.24137
4.38202
4.52954
4.6811
4.83307
4.98129
5.12107
5.2478
5.35746
5.44719
5.51565
5.56321
5.59181
5.60459
5.60533
5.59804
5.58654
5.57426
5.56389
3.47793
3.4538
3.44744
3.45607
3.47793
3.51203
3.55799
3.61581
3.68569
3.76789
3.86261
3.96986
4.0893
4.22015
4.36095
4.5095
4.66294
4.81754
4.96885
5.11185
5.24149
5.35335
5.4442
5.51255
5.55884
5.58536
5.59574
5.59418
5.58488
5.57162
5.55754
5.54487
3.44812
3.4196
3.41165
3.41999
3.44188
3.47584
3.52129
3.57822
3.64692
3.72784
3.82141
3.92788
4.04723
4.17895
4.32187
4.47397
4.63221
4.79262
4.95038
5.09995
5.23566
5.35239
5.44632
5.51559
5.56066
5.58422
5.5906
5.58482
5.57158
5.55493
5.53807
5.52341
3.3909
3.35883
3.34942
3.35723
3.37881
3.41234
3.45709
3.51308
3.58073
3.66065
3.75352
3.8599
3.98007
4.1139
4.26058
4.41841
4.58402
4.75319
4.92065
5.08025
5.22551
5.35035
5.44998
5.52187
5.56628
5.58637
5.58742
5.57561
5.55669
5.53523
5.51482
5.49834
3.30239
3.26742
3.25675
3.26396
3.28505
3.31795
3.36189
3.41692
3.48357
3.56267
3.65512
3.76178
3.88329
4.01988
4.17121
4.33616
4.51106
4.69144
4.87164
5.04495
5.20393
5.34118
5.4505
5.52809
5.57361
5.59045
5.5851
5.56543
5.53883
5.51094
5.48591
5.46724
3.17927
3.14189
3.13012
3.13668
3.15713
3.18921
3.23215
3.28605
3.35157
3.42968
3.5215
3.62815
3.75062
3.88954
4.0451
4.21686
4.40174
4.59473
4.79015
4.98093
5.15866
5.31433
5.43965
5.52869
5.57952
5.59517
5.58321
5.55385
5.51703
5.48035
5.44887
5.42683
3.01866
2.97917
2.96636
2.97215
2.99172
3.02267
3.06422
3.1165
3.18024
3.25653
3.34662
3.45182
3.5734
3.71242
3.86962
4.04528
4.23837
4.44327
4.65484
4.86625
5.06842
5.25062
5.4017
5.51228
5.57719
5.59754
5.5812
5.54101
5.49084
5.44176
5.4008
5.3731
2.818
2.77662
2.7627
2.76745
2.78568
2.81489
2.85422
2.90382
2.96439
3.03698
3.12287
3.22344
3.3401
3.47433
3.62752
3.80096
3.99562
4.20792
4.43336
4.66647
4.89846
5.1171
5.30783
5.45618
5.55122
5.58923
5.57611
5.52663
5.45998
5.39337
5.33806
5.30114
2.5751
2.53195
2.51671
2.51993
2.53609
2.56251
2.59823
2.64328
2.69819
2.76381
2.84119
2.93153
3.03627
3.15718
3.29641
3.45657
3.64041
3.84946
4.08073
4.33211
4.59684
4.86225
5.11031
5.31986
5.47098
5.55065
5.5582
5.50749
5.42344
5.33303
5.25627
5.20473
2.28819
2.24335
2.22644
2.2274
2.24036
2.26243
2.29245
2.33013
2.37562
2.42927
2.49157
2.56322
2.64535
2.73987
2.8498
2.97948
3.13435
3.32035
3.54062
3.79903
4.09362
4.41353
4.73823
5.03901
5.28353
5.44362
5.50466
5.4731
5.37716
5.25719
5.14945
5.07538
1.95603
1.90955
1.8905
1.88823
1.89652
1.91219
1.93368
1.9602
1.99118
2.02609
2.06437
2.10573
2.15058
2.20067
2.25989
2.33472
2.43426
2.56934
2.75073
2.99361
3.30523
3.68022
4.09817
4.5234
4.90876
5.20457
5.37228
5.39972
5.31064
5.15957
5.00898
4.90154
1.57804
1.52995
1.50819
1.50159
1.5035
1.51031
1.51992
1.5307
1.541
1.54886
1.55215
1.54891
1.53821
1.52123
1.50254
1.49111
1.50066
1.54868
1.65397
1.84398
2.14564
2.5637
3.08232
3.66184
4.24024
4.7413
5.09145
5.24383
5.20221
5.02935
4.82376
4.66812
1.15438
1.10469
1.07968
1.06763
1.06142
1.05687
1.05105
1.0412
1.0241
0.995855
0.952031
0.888297
0.801603
0.691887
0.564029
0.429595
0.307677
0.22411
0.208433
0.295705
0.544083
0.975772
1.5859
2.3368
3.15526
3.93728
4.5648
4.93729
5.01414
4.8487
4.57968
4.35618
0.685966
0.634717
0.606023
0.587652
0.571905
0.553837
0.529451
0.494486
0.443727
0.370744
0.268129
0.12836
-0.0545789
-0.282838
-0.551899
-0.84792
-1.14608
-1.41091
-1.59948
-1.66747
-1.53241
-1.13672
-0.467157
0.449026
1.5358
2.66632
3.6742
4.38743
4.68923
4.59028
4.25972
3.94261
0.174401
0.12162
0.0891114
0.0641047
0.0381726
0.0054034
-0.0395297
-0.102705
-0.191741
-0.316086
-0.486734
-0.715134
-1.01113
-1.37992
-1.81831
-2.31094
-2.8276
-3.32274
-3.73862
-4.01298
-4.05844
-3.76651
-3.09512
-2.05126
-0.70105
0.818491
2.29867
3.48554
4.15221
4.21676
3.84577
3.40338
-0.378297
-0.432581
-0.468552
-0.499583
-0.535037
-0.582036
-0.647485
-0.739536
-0.868488
-1.04714
-1.29049
-1.61444
-2.03339
-2.5565
-3.18303
-3.89737
-4.66502
-5.43094
-6.12209
-6.65533
-6.93708
-6.82695
-6.23351
-5.13384
-3.56896
-1.66592
0.343093
2.12624
3.31927
3.68524
3.32402
2.72127
-0.970124
-1.02591
-1.06429
-1.09937
-1.14179
-1.20017
-1.28325
-1.40143
-1.5678
-1.79861
-2.11296
-2.53143
-3.07335
-3.75256
-4.57188
-5.517
-6.55102
-7.61137
-8.61101
-9.44592
-10.0064
-10.1467
-9.72388
-8.66894
-6.98423
-4.76226
-2.22689
0.236671
2.11792
2.96048
2.69904
1.90469
-1.59976
-1.65712
-1.69588
-1.73122
-1.77551
-1.83937
-1.93364
-2.07106
-2.26746
-2.54236
-2.91869
-3.42148
-4.07491
-4.89776
-5.89725
-7.06196
-8.35506
-9.70953
-11.0278
-12.1878
-13.0576
-13.4902
-13.3247
-12.4286
-10.7551
-8.33834
-5.35293
-2.18988
0.515637
2.03824
2.01946
1.02119
-2.26752
-2.32662
-2.36247
-2.39182
-2.42972
-2.48948
-2.58443
-2.72972
-2.94372
-3.24874
-3.67092
-4.23898
-4.98131
-5.92129
-7.07085
-8.42274
-9.94272
-11.5633
-13.1813
-14.6622
-15.8535
-16.5993
-16.7421
-16.1134
-14.597
-12.1537
-8.86695
-5.06609
-1.44968
0.974855
1.41338
0.243637
-2.97661
-3.03778
-3.0656
-3.07955
-3.09885
-3.14068
-3.22149
-3.35894
-3.5736
-3.88986
-4.33607
-4.94345
-5.74333
-6.76273
-8.01783
-9.50618
-11.1983
-13.0302
-14.8994
-16.6662
-18.1651
-19.225
-19.6912
-19.4029
-18.1761
-15.8883
-12.4996
-8.20051
-3.64864
-0.0865526
1.12476
-0.0973798
-3.73503
-3.7987
-3.81069
-3.79543
-3.77898
-3.78428
-3.83184
-3.94197
-4.13699
-4.44249
-4.88773
-5.5048
-6.32629
-7.38119
-8.68888
-10.2515
-12.0455
-14.0139
-16.0607
-18.0502
-19.8136
-21.1671
-21.9502
-22.0151
-21.1697
-19.1956
-15.9172
-11.3135
-5.85942
-0.90466
1.54057
0.538843
-4.55848
-4.62486
-4.60879
-4.54418
-4.46845
-4.41324
-4.40437
-4.46492
-4.61836
-4.89039
-5.30981
-5.90828
-6.71823
-7.76903
-9.08126
-10.6596
-12.4852
-14.5079
-16.6416
-18.7626
-20.7134
-22.313
-23.385
-23.7758
-23.3263
-21.7672
-18.7782
-14.0763
-7.78954
-1.14935
3.20237
2.956
-5.47544
-5.54343
-5.47917
-5.33519
-5.16808
-5.02228
-4.9302
-4.91747
-5.00767
-5.2252
-5.59727
-6.15383
-6.92571
-7.94102
-9.21981
-10.7675
-12.5678
-14.5761
-16.7153
-18.8751
-20.9149
-22.6715
-23.9718
-24.6455
-24.5258
-23.3857
-20.7865
-16.1547
-9.10612
-0.423916
6.80647
8.2864
-6.53705
-6.60092
-6.45286
-6.18327
-5.88065
-5.60721
-5.40234
-5.29275
-5.3
-5.44557
-5.75359
-6.25107
-6.96609
-7.92436
-9.14417
-10.6303
-12.3675
-14.3151
-16.403
-18.5319
-20.5767
-22.3931
-23.8246
-24.7036
-24.8364
-23.9868
-21.7168
-17.2232
-9.43505
1.73513
13.2147
18.0978
-7.83845
-7.87733
-7.57745
-7.1077
-6.60819
-6.16252
-5.81407
-5.58636
-5.49536
-5.55706
-5.7909
-6.21982
-6.86838
-7.75921
-8.90817
-10.3186
-11.9753
-13.8399
-15.8475
-17.9066
-19.903
-21.7053
-23.1717
-24.1464
-24.4261
-23.716
-21.5373
-16.9216
-8.26843
5.95973
23.5322
34.5899
-9.56983
-9.51279
-8.92031
-8.12513
-7.34315
-6.67387
-6.15316
-5.79202
-5.59475
-5.56843
-5.72609
-6.0858
-6.6682
-7.49261
-8.57218
-9.9084
-11.4856
-13.2666
-15.1895
-17.1681
-19.0941
-20.8418
-22.2728
-23.2366
-23.5305
-22.796
-20.3972
-15.1029
-4.73698
13.3805
39.366
60.9306
-12.1523
-11.7507
-10.553
-9.21757
-8.03846
-7.09395
-6.3824
-5.8849
-5.58501
-5.47743
-5.56732
-5.86743
-6.39439
-7.1643
-8.18764
-9.46392
-10.9765
-12.6884
-14.5395
-16.4459
-18.3015
-19.98
-21.3361
-22.2015
-22.3688
-21.4112
-18.4209
-11.7186
1.7844
26.2248
63.4713
101.638
-16.6257
-14.9425
-12.427
-10.2059
-8.50888
-7.26712
-6.37818
-5.76629
-5.38847
-5.22481
-5.27196
-5.53714
-6.03306
-6.7727
-7.76397
-9.00432
-10.4758
-12.1409
-13.94
-15.7897
-17.5832
-19.1893
-20.4484
-21.1595
-21.0498
-19.6453
-15.5805
-6.44206
12.1163
46.4628
101.553
162.088
-25.6318
-18.9634
-13.7343
-10.306
-8.0951
-6.6535
-5.70232
-5.08646
-4.72728
-4.58979
-4.66408
-4.95432
-5.47133
-6.22652
-7.22633
-8.46685
-9.92913
-11.5752
-13.3451
-15.1551
-16.8959
-18.4286
-19.5739
-20.0852
-19.5892
-17.4385
-11.7182
0.927829
26.5655
75.4156
162.39
284.83
-50.0321
-19.2651
-9.72407
-6.31074
-4.78421
-3.96795
-3.49662
-3.24158
-3.15742
-3.23389
-3.47776
-3.90415
-4.53093
-5.37392
-6.44229
-7.73391
-9.23112
-10.8971
-12.6727
-14.4743
-16.1908
-17.6759
-18.7305
-19.0596
-18.1712
-15.1138
-7.61467
8.37085
40.3301
102.952
231.196
521.813
VECTORS velocity double
2.67666e-05 -2.67667e-05 0
-2.79555e-05 8.14886e-05 0
-0.000296064 0.00018662 0
-0.000736028 0.000253344 0
-0.00127726 0.000287892 0
-0.00186861 0.000303458 0
-0.00248145 0.000309377 0
-0.00310046 0.000309634 0
-0.00371436 0.000304271 0
-0.00430979 0.000291152 0
-0.00486828 0.00026734 0
-0.00536566 0.000230038 0
-0.00577295 0.000177252 0
-0.00605851 0.000108308 0
-0.006191 2.41848e-05 0
-0.00614246 -7.27303e-05 0
-0.00589178 -0.000177949 0
-0.00542994 -0.000283888 0
-0.0047649 -0.000381157 0
-0.00392435 -0.000459394 0
-0.00295651 -0.000508447 0
-0.00192804 -0.000520021 0
-0.000918459 -0.000489561 0
-1.09783e-05 -0.00041792 0
0.000719235 -0.000312294 0
0.00121663 -0.000185105 0
0.00145326 -5.15224e-05 0
0.00143278 7.20005e-05 0
0.00119153 0.00016925 0
0.000800507 0.000221774 0
0.000375509 0.000203224 0
8.61425e-05 8.61423e-05 0
-9.2835e-05 3.93016e-05 0
-0.000529687 0.000506994 0
-0.00142902 0.000928559 0
-0.00268079 0.00120313 0
-0.00415376 0.00135231 0
-0.00574484 0.00142146 0
-0.0073846 0.00144398 0
-0.00902532 0.00143476 0
-0.0106267 0.00139444 0
-0.0121459 0.00131557 0
-0.0135322 0.0011878 0
-0.0147269 0.00100164 0
-0.0156651 0.000751087 0
-0.0162806 0.000435515 0
-0.0165121 6.09659e-05 0
-0.0163101 -0.000360021 0
-0.0156448 -0.000806659 0
-0.0145126 -0.00124918 0
-0.0129416 -0.00165191 0
-0.0109948 -0.00197595 0
-0.00877149 -0.00218309 0
-0.00640391 -0.00224144 0
-0.00404953 -0.0021321 0
-0.00187691 -0.00185548 0
-4.64464e-05 -0.00143541 0
0.00131256 -0.000918389 0
0.00212364 -0.000365944 0
0.0023766 0.000153941 0
0.00213384 0.000571312 0
0.0015325 0.000812083 0
0.000788722 0.000781688 0
0.000206741 0.000379025 0
-0.00024649 0.000378626 0
-0.00113486 0.00149289 0
-0.00270103 0.00240817 0
-0.00472893 0.00300319 0
-0.00703626 0.00333256 0
-0.00948816 0.00348419 0
-0.0119891 0.00352197 0
-0.0144664 0.00347476 0
-0.0168547 0.00334417 0
-0.0190863 0.00311655 0
-0.0210864 0.00277329 0
-0.022774 0.00229841 0
-0.0240653 0.00168373 0
-0.0248794 0.000932475 0
-0.0251457 6.17826e-05 0
-0.0248123 -0.000896205 0
-0.0238538 -0.00189425 0
-0.0222754 -0.0028722 0
-0.0201157 -0.0037595 0
-0.0174518 -0.00447902 0
-0.0144016 -0.0049536 0
-0.011124 -0.00511616 0
-0.00781304 -0.00492266 0
-0.00468498 -0.00436559 0
-0.0019562 -0.00348455 0
0.000185086 -0.00236955 0
0.00161177 -0.00115255 0
0.00228549 1.38692e-05 0
0.00226939 0.000970237 0
0.00172808 0.00155582 0
0.000927752 0.00158206 0
0.000251312 0.000837078 0
-0.000395928 0.00102104 0
-0.00172668 0.00306959 0
-0.00393767 0.00460862 0
-0.00668997 0.00558294 0
-0.00974635 0.00611651 0
-0.0129458 0.00635155 0
-0.0161749 0.00638467 0
-0.0193439 0.00625838 0
-0.0223702 0.00597522 0
-0.0251696 0.00551639 0
-0.0276534 0.00485742 0
-0.0297308 0.00397928 0
-0.0313124 0.00287572 0
-0.0323159 0.00155805 0
-0.032672 5.86212e-05 0
-0.0323322 -0.00156623 0
-0.0312728 -0.0032421 0
-0.0294953 -0.00488033 0
-0.0270297 -0.00637653 0
-0.0239423 -0.00761337 0
-0.0203432 -0.00846859 0
-0.0163928 -0.00882923 0
-0.0123015 -0.00861173 0
-0.00832067 -0.00778544 0
-0.00471981 -0.00639434 0
-0.00175196 -0.0045689 0
0.000389519 -0.00252137 0
0.00161639 -0.000517905 0
0.00197414 0.00116036 0
0.00164194 0.00223921 0
0.000923252 0.00241767 0
0.000256381 0.00134477 0
-0.000532394 0.00194937 0
-0.00226993 0.00520956 0
-0.00507357 0.00748329 0
-0.0084837 0.00887071 0
-0.012208 0.00960943 0
-0.0160619 0.00991193 0
-0.0199196 0.00991106 0
-0.0236816 0.00966306 0
-0.0272569 0.00917216 0
-0.030555 0.00841684 0
-0.0334846 0.0073705 0
-0.0359562 0.00601523 0
-0.0378851 0.00435021 0
-0.0391948 0.00239667 0
-0.03982 0.000201399 0
-0.0397097 -0.00215914 0
-0.038827 -0.00459127 0
-0.0371487 -0.00698699 0
-0.0346706 -0.00921356 0
-0.0314212 -0.0111132 0
-0.0274781 -0.012511 0
-0.0229824 -0.013233 0
-0.0181474 -0.0131341 0
-0.0132562 -0.0121352 0
-0.00864099 -0.0102607 0
-0.00464316 -0.00766826 0
-0.00155331 -0.00465334 0
0.000453254 -0.00161937 0
0.0013727 0.000984628 0
0.00139004 0.0027298 0
0.000850068 0.00318574 0
0.000246248 0.0018474 0
-0.000654708 0.00313647 0
-0.00275667 0.00786195 0
-0.00609068 0.0109685 0
-0.0100881 0.0127931 0
-0.0144071 0.0137303 0
-0.0188434 0.0140812 0
-0.0232644 0.0140204 0
-0.0275687 0.01362 0
-0.0316664 0.0128882 0
-0.0354715 0.0118041 0
-0.0389013 0.0103427 0
-0.0418767 0.00849006 0
-0.0443237 0.00625124 0
-0.0461726 0.0036542 0
-0.047356 0.00075257 0
-0.0478058 -0.00237091 0
-0.0474507 -0.0056172 0
-0.0462178 -0.0088723 0
-0.0440422 -0.011982 0
-0.0408895 -0.0147468 0
-0.0367815 -0.0169285 0
-0.0318207 -0.018272 0
-0.026209 -0.0185417 0
-0.0202552 -0.0175727 0
-0.0143619 -0.0153316 0
-0.00898465 -0.0119724 0
-0.00455802 -0.00786572 0
-0.00139724 -0.00357433 0
0.000391315 0.000231589 0
0.000966607 0.00289021 0
0.000722337 0.00380958 0
0.000228035 0.00232168 0
-0.000763192 0.00455437 0
-0.00318705 0.0109699 0
-0.00698906 0.0149967 0
-0.0115072 0.0172806 0
-0.0163589 0.0184135 0
-0.021327 0.0188025 0
-0.0262788 0.0186719 0
-0.0311196 0.0181136 0
-0.0357708 0.0171435 0
-0.040162 0.0157451 0
-0.0442278 0.0138972 0
-0.047906 0.0115891 0
-0.0511335 0.00882663 0
-0.05384 0.00563421 0
-0.0559412 0.00205721 0
-0.0573328 -0.00183425 0
-0.0578869 -0.00595482 0
-0.057458 -0.0101965 0
-0.0559011 -0.0143903 0
-0.0531001 -0.0182921 0
-0.0490028 -0.0215884 0
-0.0436552 -0.0239206 0
-0.0372303 -0.0249296 0
-0.0300474 -0.0243215 0
-0.0225725 -0.0219511 0
-0.015388 -0.0179147 0
-0.00911449 -0.0126236 0
-0.00428049 -0.00681126 0
-0.00116905 -0.00143148 0
0.000288272 0.00252066 0
0.000516889 0.00419478 0
0.000198978 0.00274869 0
-0.000858025 0.00617558 0
-0.00356225 0.0144767 0
-0.00777278 0.0195023 0
-0.0127513 0.0222715 0
-0.0180854 0.0236084 0
-0.0235532 0.0240435 0
-0.0290301 0.0238595 0
-0.0344374 0.0231741 0
-0.0397183 0.0220152 0
-0.0448268 0.0203731 0
-0.0497216 0.0182298 0
-0.0543581 0.0155712 0
-0.0586772 0.0123912 0
-0.0625938 0.0086927 0
-0.0659854 0.0044916 0
-0.0686871 -0.000175453 0
-0.0704975 -0.00524912 0
-0.0711915 -0.0106371 0
-0.0705357 -0.0161625 0
-0.0683233 -0.0215334 0
-0.0644181 -0.0263497 0
-0.0587947 -0.0301303 0
-0.0515757 -0.0323636 0
-0.0430642 -0.032582 0
-0.0337628 -0.0304669 0
-0.0243663 -0.0259799 0
-0.0156996 -0.0194987 0
-0.00857259 -0.0118972 0
-0.00355677 -0.00447283 0
-0.00077139 0.00131932 0
0.000194474 0.00420164 0
0.00015327 0.00310094 0
-0.000938673 0.00797228 0
-0.00388145 0.018327 0
-0.0084427 0.0244238 0
-0.0138255 0.0277113 0
-0.0195994 0.0292766 0
-0.0255463 0.02979 0
-0.0315584 0.029602 0
-0.0375822 0.0288627 0
-0.0435911 0.0276162 0
-0.0495701 0.0258596 0
-0.0555031 0.0235712 0
-0.0613569 0.0207202 0
-0.0670636 0.017268 0
-0.0725034 0.0131722 0
-0.0774957 0.00839606 0
-0.0818002 0.00292622 0
-0.0851326 -0.00320794 0
-0.0871882 -0.00992863 0
-0.0876554 -0.0170595 0
-0.0862423 -0.0242617 0
-0.0827262 -0.0310427 0
-0.0769986 -0.0367884 0
-0.0691082 -0.0408148 0
-0.059305 -0.0424456 0
-0.0480817 -0.041128 0
-0.0362002 -0.0365967 0
-0.0246684 -0.0290804 0
-0.0146153 -0.0194955 0
-0.00701897 -0.00948664 0
-0.00234046 -0.00113076 0
-0.000286196 0.00363159 0
8.58936e-05 0.00334011 0
-0.00100362 0.00991458 0
-0.00414026 0.0224641 0
-0.00899255 0.0297002 0
-0.0147232 0.0335484 0
-0.0208945 0.0353848 0
-0.0273007 0.0360349 0
-0.0338581 0.0359268 0
-0.0405457 0.0352494 0
-0.0473721 0.0340648 0
-0.0543544 0.0323723 0
-0.0614969 0.0301339 0
-0.0687667 0.0272812 0
-0.0760711 0.023718 0
-0.0832402 0.0193312 0
-0.0900239 0.014013 0
-0.096102 0.00769181 0
-0.101107 0.000364303 0
-0.104665 -0.00788746 0
-0.106409 -0.01689 0
-0.105981 -0.0262722 0
-0.103076 -0.0354527 0
-0.0974962 -0.0436862 0
-0.0891917 -0.0501119 0
-0.0783179 -0.0538256 0
-0.0652969 -0.0539922 0
-0.050884 -0.0500269 0
-0.0362033 -0.0418628 0
-0.0226859 -0.0302836 0
-0.0118049 -0.0171758 0
-0.00456302 -0.00536203 0
-0.000975686 0.00222126 0
-1.16708e-05 0.00341433 0
-0.00105032 0.0119685 0
-0.00433036 0.0268269 0
-0.00940766 0.0352671 0
-0.0154229 0.0397275 0
-0.0219409 0.041895 0
-0.0287739 0.0427638 0
-0.0358678 0.0428492 0
-0.0432365 0.0423833 0
-0.0509241 0.0414449 0
-0.0589749 0.0400253 0
-0.0674034 0.0380518 0
-0.0761643 0.035394 0
-0.085128 0.0318732 0
-0.0940689 0.027286 0
-0.10267 0.021443 0
-0.110543 0.0142127 0
-0.117257 0.0055627 0
-0.122373 -0.00441209 0
-0.125486 -0.0155086 0
-0.126207 -0.0273602 0
-0.124163 -0.0393132 0
-0.119063 -0.0505062 0
-0.110743 -0.0599163 0
-0.0992237 -0.0664145 0
-0.0847891 -0.0688588 0
-0.0680947 -0.0662677 0
-0.0502731 -0.0581242 0
-0.0329725 -0.0448401 0
-0.0181787 -0.0282939 0
-0.00763492 -0.0120296 0
-0.00195227 -0.000381156 0
-0.000151099 0.00325156 0
-0.00107539 0.0140942 0
-0.00444012 0.031346 0
-0.00966589 0.0410511 0
-0.0158898 0.0461827 0
-0.0226859 0.0487539 0
-0.0298877 0.0499396 0
-0.0374704 0.0503498 0
-0.0454811 0.0502621 0
-0.0539933 0.049766 0
-0.0630689 0.0488306 0
-0.0727213 0.0473274 0
-0.0828834 0.0450414 0
-0.0933863 0.0416925 0
-0.103956 0.0369771 0
-0.114225 0.030622 0
-0.123759 0.0224404 0
-0.132087 0.0123769 0
-0.138734 0.000536593 0
-0.143262 -0.0128152 0
-0.145266 -0.0273289 0
-0.144337 -0.0423172 0
-0.140106 -0.0568332 0
-0.132289 -0.0697265 0
-0.120739 -0.0796736 0
-0.10554 -0.0852334 0
-0.0871445 -0.084983 0
-0.0665569 -0.0778182 0
-0.0454938 -0.0635098 0
-0.0263693 -0.0435424 0
-0.0117904 -0.0219039 0
-0.00332733 -0.00465249 0
-0.000353033 0.00274743 0
-0.00107516 0.0162448 0
-0.00445635 0.0359413 0
-0.00974093 0.046966 0
-0.01608 0.0528307 0
-0.0230612 0.0558832 0
-0.030537 0.0574879 0
-0.0385075 0.0583547 0
-0.0470453 0.0588057 0
-0.056243 0.0589323 0
-0.0661685 0.0586654 0
-0.0768256 0.0578021 0
-0.0881237 0.0560268 0
-0.0998633 0.0529496 0
-0.11174 0.048166 0
-0.123362 0.0413244 0
-0.134279 0.0321886 0
-0.144006 0.0206845 0
-0.152057 0.00692668 0
-0.157961 -0.00877298 0
-0.161315 -0.0260134 0
-0.161727 -0.0441494 0
-0.158768 -0.0621904 0
-0.152043 -0.0789119 0
-0.141224 -0.0928569 0
-0.126142 -0.102332 0
-0.106948 -0.105474 0
-0.0843659 -0.100497 0
-0.0599855 -0.0862745 0
-0.0364632 -0.0634245 0
-0.0172529 -0.0358112 0
-0.00524633 -0.0112149 0
-0.000652615 0.00174178 0
-0.00104645 0.0183664 0
-0.0043671 0.0405216 0
-0.00960751 0.0529108 0
-0.0159495 0.059567 0
-0.0229946 0.0631731 0
-0.0306083 0.0652876 0
-0.0388061 0.0667233 0
-0.0476741 0.067843 0
-0.0573116 0.0687302 0
-0.0677831 0.0692644 0
-0.0790791 0.0691562 0
-0.0910914 0.0679832 0
-0.103606 0.0652473 0
-0.116311 0.0604503 0
-0.12882 0.0531707 0
-0.14069 0.0431296 0
-0.151454 0.0302355 0
-0.160638 0.0146099 0
-0.167782 -0.00340801 0
-0.172497 -0.0233098 0
-0.174405 -0.0445324 0
-0.173078 -0.0660939 0
-0.16804 -0.086771 0
-0.158792 -0.105065 0
-0.144876 -0.119122 0
-0.126058 -0.126696 0
-0.102629 -0.125286 0
-0.0758316 -0.112663 0
-0.0482995 -0.0880901 0
-0.0241565 -0.0544989 0
-0.00785457 -0.0208356 0
-0.00108746 1.70754e-06 0
-0.000987521 0.0204004 0
-0.00416502 0.0449857 0
-0.00924805 0.0587701 0
-0.0154643 0.066266 0
-0.0224265 0.0704814 0
-0.0300037 0.0731702 0
-0.0382134 0.0752481 0
-0.047142 0.0771148 0
-0.0568838 0.0788378 0
-0.0674931 0.0802376 0
-0.0789494 0.0809353 0
-0.0911383 0.0804054 0
-0.10385 0.0780512 0
-0.116791 0.0732924 0
-0.129601 0.0656478 0
-0.141879 0.0548011 0
-0.153197 0.0406458 0
-0.163123 0.0233084 0
-0.171239 0.00315483 0
-0.177177 -0.0192215 0
-0.180608 -0.0432801 0
-0.181164 -0.0681186 0
-0.178341 -0.0926065 0
-0.171493 -0.115325 0
-0.159872 -0.134399 0
-0.142791 -0.147318 0
-0.119972 -0.150912 0
-0.0920839 -0.141723 0
-0.0614269 -0.117219 0
-0.0324749 -0.0784647 0
-0.0112618 -0.0343848 0
-0.0016961 -0.00278185 0
-0.000899043 0.0222869 0
-0.00385083 0.0492285 0
-0.00865952 0.0644191 0
-0.0146114 0.0727851 0
-0.0213263 0.0776394 0
-0.0286645 0.0809277 0
-0.036632 0.0836678 0
-0.0453017 0.0862934 0
-0.0547538 0.0888529 0
-0.0650298 0.0911078 0
-0.0761035 0.0925951 0
-0.0878674 0.0926984 0
-0.100134 0.0907368 0
-0.112649 0.0860619 0
-0.125103 0.0781433 0
-0.137154 0.0666346 0
-0.148441 0.0514168 0
-0.1586 0.0326218 0
-0.16728 0.0106385 0
-0.174149 -0.0138987 0
-0.178975 -0.0403452 0
-0.181508 -0.0679646 0
-0.181279 -0.0958122 0
-0.177554 -0.122693 0
-0.169316 -0.14689 0
-0.155403 -0.16582 0
-0.134858 -0.175774 0
-0.10756 -0.172047 0
-0.0751412 -0.149971 0
-0.042003 -0.107803 0
-0.0155283 -0.0527346 0
-0.00252408 -0.00700204 0
-0.000784891 0.0239709 0
-0.00343633 0.0531478 0
-0.00785954 0.0697317 0
-0.0134093 0.0789742 0
-0.0197068 0.0844627 0
-0.0265924 0.0883282 0
-0.0340471 0.0916894 0
-0.0421196 0.0950141 0
-0.0508692 0.098334 0
-0.0603253 0.101359 0
-0.0704628 0.103555 0
-0.0811934 0.104233 0
-0.0923671 0.102643 0
-0.103782 0.0980848 0
-0.115196 0.0899884 0
-0.12634 0.0779846 0
-0.136934 0.0619478 0
-0.146705 0.0420207 0
-0.155403 0.0186171 0
-0.162809 -0.00760148 0
-0.168788 -0.0358383 0
-0.173208 -0.065518 0
-0.17573 -0.0959651 0
-0.17563 -0.126366 0
-0.171698 -0.155387 0
-0.162311 -0.180623 0
-0.14577 -0.198058 0
-0.120981 -0.201849 0
-0.0885731 -0.184996 0
-0.0523874 -0.142102 0
-0.0206858 -0.0766114 0
-0.00364455 -0.0131707 0
-0.00065262 0.0254084 0
-0.00294642 0.0566555 0
-0.00689066 0.0745914 0
-0.0119138 0.0846873 0
-0.0176337 0.0907669 0
-0.0238607 0.0951366 0
-0.0305409 0.0990159 0
-0.0376911 0.10291 0
-0.0453469 0.106843 0
-0.0535275 0.110486 0
-0.0622162 0.113254 0
-0.0713538 0.114402 0
-0.0808394 0.113133 0
-0.0905361 0.108706 0
-0.100279 0.100523 0
-0.109883 0.0881986 0
-0.119163 0.0716076 0
-0.127944 0.0509135 0
-0.136092 0.02657 0
-0.143526 -0.000714008 0
-0.150224 -0.0300499 0
-0.15621 -0.0609 0
-0.161356 -0.0929144 0
-0.165059 -0.125813 0
-0.166039 -0.158892 0
-0.162297 -0.190246 0
-0.151388 -0.215886 0
-0.131114 -0.229084 0
-0.100791 -0.220493 0
-0.0631748 -0.180407 0
-0.0267491 -0.106433 0
-0.00516186 -0.0219771 0
-0.000513597 0.0265746 0
-0.00242003 0.0596895 0
-0.00582263 0.0789042 0
-0.0102218 0.0897968 0
-0.0152281 0.0963835 0
-0.0206162 0.101135 0
-0.0262916 0.105373 0
-0.032236 0.109648 0
-0.0384612 0.113987 0
-0.0449798 0.118042 0
-0.0517899 0.121197 0
-0.0588692 0.122676 0
-0.0661745 0.121651 0
-0.0736435 0.117355 0
-0.0811969 0.109171 0
-0.0887448 0.0967037 0
-0.096197 0.079834 0
-0.103482 0.0587532 0
-0.110571 0.033968 0
-0.117506 0.00625628 0
-0.124393 -0.023435 0
-0.131439 -0.0544826 0
-0.138776 -0.0868491 0
-0.146056 -0.120895 0
-0.152099 -0.156788 0
-0.154699 -0.193492 0
-0.150753 -0.227495 0
-0.136906 -0.251597 0
-0.110895 -0.254314 0
-0.0738615 -0.221236 0
-0.0337082 -0.142183 0
-0.00719187 -0.0343308 0
-0.000382925 0.0274711 0
-0.00191028 0.0622267 0
-0.00475288 0.0826122 0
-0.00847085 0.094206 0
-0.0126644 0.101174 0
-0.0170722 0.10614 0
-0.0215596 0.110531 0
-0.0260748 0.11495 0
-0.0306096 0.119445 0
-0.0351745 0.123667 0
-0.039787 0.126994 0
-0.0444669 0.128638 0
-0.0492341 0.127761 0
-0.0541069 0.123586 0
-0.0590999 0.115486 0
-0.0642241 0.103061 0
-0.0694915 0.0861966 0
-0.0749275 0.0651113 0
-0.080594 0.0403658 0
-0.0866205 0.0128195 0
-0.0932208 -0.0165104 0
-0.100753 -0.0468293 0
-0.109611 -0.0783071 0
-0.119815 -0.111953 0
-0.130509 -0.148993 0
-0.139548 -0.189648 0
-0.143389 -0.231443 0
-0.137575 -0.26731 0
-0.118087 -0.284099 0
-0.0839275 -0.262644 0
-0.0415052 -0.183351 0
-0.009831 -0.0513537 0
-0.000279474 0.0281335 0
-0.00148476 0.064297 0
-0.00380656 0.0857063 0
-0.00683708 0.0978604 0
-0.0101638 0.10504 0
-0.0134952 0.110014 0
-0.0166648 0.114314 0
-0.0195955 0.118612 0
-0.0222662 0.122988 0
-0.024691 0.127114 0
-0.0269103 0.13038 0
-0.0289873 0.132009 0
-0.0310056 0.131175 0
-0.0330657 0.127105 0
-0.0352799 0.119174 0
-0.0377659 0.106982 0
-0.0406459 0.0904221 0
-0.0440488 0.0697249 0
-0.0481179 0.0454878 0
-0.0530363 0.0186424 0
-0.0590771 -0.00969213 0
-0.0666476 -0.0385453 0
-0.0762955 -0.068085 0
-0.0884441 -0.0998232 0
-0.102792 -0.13608 0
-0.117632 -0.178682 0
-0.129364 -0.226837 0
-0.132661 -0.274433 0
-0.121688 -0.307438 0
-0.0928412 -0.302312 0
-0.0500122 -0.228935 0
-0.0131357 -0.0743204 0
-0.000226667 0.0286397 0
-0.00122758 0.065997 0
-0.00313817 0.0882387 0
-0.00553365 0.100754 0
-0.00798619 0.107926 0
-0.0101887 0.112662 0
-0.0119603 0.116607 0
-0.0132143 0.120504 0
-0.013929 0.124481 0
-0.0141296 0.128246 0
-0.0138812 0.131219 0
-0.0132878 0.132654 0
-0.0124917 0.131752 0
-0.011671 0.127767 0
-0.0110332 0.120089 0
-0.0108024 0.108323 0
-0.0112171 0.092376 0
-0.0125266 0.0724834 0
-0.0149778 0.0492495 0
-0.0188094 0.0236307 0
-0.0242834 -0.00316551 0
-0.0317203 -0.0300645 0
-0.0416216 -0.0570166 0
-0.0546654 -0.0856992 0
-0.0712229 -0.119298 0
-0.0904564 -0.16139 0
-0.109295 -0.213558 0
-0.122013 -0.271696 0
-0.121112 -0.322049 0
-0.100019 -0.33764 0
-0.0590034 -0.277451 0
-0.017114 -0.10457 0
-0.000255069 0.0291214 0
-0.00124581 0.067507 0
-0.00293767 0.0903312 0
-0.00481175 0.102931 0
-0.00642367 0.109813 0
-0.00747692 0.11403 0
-0.00780552 0.117339 0
-0.00733797 0.120559 0
-0.00606916 0.123872 0
-0.0040451 0.127031 0
-0.00135675 0.129497 0
0.00185687 0.130569 0
0.00540134 0.129497 0
0.0090289 0.125574 0
0.0124459 0.118227 0
0.0153199 0.107081 0
0.0172955 0.0920576 0
0.0180125 0.0733943 0
0.0171221 0.0516802 0
0.0143049 0.0278488 0
0.00929676 0.00309847 0
0.00191713 -0.0215119 0
-0.00806584 -0.0456849 0
-0.0212285 -0.0708245 0
-0.038451 -0.100393 0
-0.0600673 -0.139446 0
-0.0842648 -0.192467 0
-0.105725 -0.258609 0
-0.11577 -0.325993 0
-0.104718 -0.365841 0
-0.0680866 -0.326896 0
-0.0217081 -0.143392 0
-0.00040872 0.0297852 0
-0.00168451 0.0691097 0
-0.00344484 0.0921806 0
-0.00496646 0.104477 0
-0.00579536 0.110708 0
-0.00568947 0.114083 0
-0.00454147 0.116467 0
-0.00232802 0.11875 0
0.000921 0.121163 0
0.00513407 0.123503 0
0.0101899 0.12528 0
0.0159082 0.125853 0
0.0220442 0.124532 0
0.0282868 0.120669 0
0.0342639 0.113738 0
0.0395515 0.103408 0
0.0436937 0.0896127 0
0.0462288 0.0725871 0
0.0467172 0.0528893 0
0.044785 0.0313891 0
0.040186 0.00916521 0
0.0328339 -0.012847 0
0.022771 -0.034304 0
0.00983688 -0.0561086 0
-0.00687765 -0.081172 0
-0.0287117 -0.115217 0
-0.0556898 -0.16552 0
-0.0840479 -0.235736 0
-0.104933 -0.317935 0
-0.105851 -0.384033 0
-0.0765538 -0.374633 0
-0.0267439 -0.191844 0
-0.000758689 0.0309526 0
-0.0027569 0.0712163 0
-0.00497541 0.0940529 0
-0.00634664 0.105498 0
-0.00644082 0.11061 0
-0.00514288 0.112777 0
-0.00246434 0.113947 0
0.00153227 0.11506 0
0.00675839 0.116378 0
0.013101 0.117733 0
0.0204054 0.11869 0
0.0284563 0.118674 0
0.0369654 0.117066 0
0.0455682 0.113289 0
0.0538293 0.106879 0
0.061255 0.097553 0
0.0673171 0.0852631 0
0.0714852 0.0702336 0
0.0732687 0.0529709 0
0.0722735 0.034235 0
0.0682676 0.0149243 0
0.0612051 -0.00419149 0
0.0511887 -0.0228802 0
0.0382907 -0.0417003 0
0.0222151 -0.0627901 0
0.00171045 -0.0912597 0
-0.0250894 -0.135699 0
-0.057302 -0.204986 0
-0.0875896 -0.297513 0
-0.101728 -0.3894 0
-0.0831182 -0.417172 0
-0.0318224 -0.250411 0
-0.00143015 0.0331414 0
-0.00479841 0.0743939 0
-0.00795812 0.0962535 0
-0.00935808 0.106069 0
-0.00869548 0.109471 0
-0.00610108 0.110023 0
-0.00178493 0.109705 0
0.004061 0.109459 0
0.0112684 0.109546 0
0.019676 0.109815 0
0.0290978 0.109882 0
0.0392898 0.10924 0
0.0499318 0.10735 0
0.0606222 0.103713 0
0.0708839 0.0979331 0
0.0801813 0.0897761 0
0.0879475 0.0792117 0
0.093623 0.0664414 0
0.0967049 0.0518977 0
0.0968063 0.036202 0
0.093713 0.0200565 0
0.0874049 0.00404688 0
0.0779804 -0.0116777 0
0.0655558 -0.0275802 0
0.0500769 -0.0453557 0
0.0309182 -0.0690307 0
0.00633507 -0.106545 0
-0.0257975 -0.169795 0
-0.0623585 -0.265855 0
-0.0897496 -0.379529 0
-0.0855021 -0.449901 0
-0.0361234 -0.318357 0
-0.00265199 0.0372236 0
-0.00834723 0.0793753 0
-0.0129552 0.0990397 0
-0.0144092 0.106136 0
-0.012783 0.107114 0
-0.00863744 0.10564 0
-0.00247535 0.10361 0
0.00534589 0.101887 0
0.014573 0.100683 0
0.0250023 0.0998404 0
0.036425 0.0990121 0
0.0485807 0.0977618 0
0.0611337 0.0956326 0
0.0736661 0.0922068 0
0.0856855 0.0871576 0
0.0966453 0.0802945 0
0.105975 0.0715971 0
0.113125 0.0612313 0
0.11761 0.0495399 0
0.119073 0.0369958 0
0.117321 0.0241082 0
0.112347 0.0112775 0
0.104273 -0.00141052 0
0.0932239 -0.0143733 0
0.0791627 -0.0290226 0
0.0616781 -0.0487203 0
0.0395816 -0.0801762 0
0.0104567 -0.134907 0
-0.0274923 -0.226234 0
-0.0661449 -0.353106 0
-0.0798494 -0.466866 0
-0.0380699 -0.39255 0
-0.00482894 0.0447045 0
-0.0141967 0.0869574 0
-0.0205172 0.102386 0
-0.0215874 0.105314 0
-0.018371 0.103094 0
-0.0121108 0.099255 0
-0.00368454 0.0954071 0
0.00637973 0.0922044 0
0.0177666 0.0897518 0
0.0302548 0.0878543 0
0.0436341 0.0861963 0
0.0576487 0.0844073 0
0.0719706 0.0821122 0
0.0861928 0.0789727 0
0.0998385 0.0747265 0
0.112385 0.0692199 0
0.123294 0.0624319 0
0.13206 0.0544818 0
0.138248 0.0456147 0
0.141548 0.0361589 0
0.141796 0.0264493 0
0.138987 0.0167197 0
0.133241 0.00696634 0
0.124739 -0.00319877 0
0.113446 -0.014843 0
0.0989083 -0.0308774 0
0.0800483 -0.0570627 0
0.0546233 -0.10347 0
0.0192762 -0.184374 0
-0.0258647 -0.311173 0
-0.0599799 -0.46098 0
-0.0347877 -0.465407 0
-0.00854226 0.0580757 0
-0.0230384 0.09745 0
-0.0301821 0.105358 0
-0.0291834 0.102414 0
-0.0227776 0.0963719 0
-0.0131336 0.090073 0
-0.0015026 0.0845317 0
0.0114758 0.0800371 0
0.0254878 0.0765203 0
0.0403472 0.0737382 0
0.0558814 0.0713989 0
0.0718758 0.0691956 0
0.0880469 0.066831 0
0.104037 0.0640418 0
0.119425 0.0606231 0