# vtk DataFile Version 2.0
Lid-driven cavity
ASCII
DATASET STRUCTURED_POINTS
DIMENSIONS 32 32 1
ORIGIN 0.015625 0.015625 0
SPACING 0.03125 0.03125 1
POINT_DATA 1024
SCALARS pressure double 1
LOOKUP_TABLE default
1.08904
1.08233
1.08165
1.09092
1.1112
1.14244
1.1843
1.23643
1.2985
1.37024
1.45128
1.54119
1.63937
1.74502
1.85712
1.97435
2.09512
2.21762
2.33986
2.45953
2.5741
2.68108
2.77808
2.86304
2.9344
2.99114
3.03295
3.06021
3.07407
3.07656
3.07106
3.06316
1.09575
1.08893
1.09027
1.10125
1.12246
1.154
1.19571
1.2474
1.30884
1.37976
1.45984
1.54863
1.64555
1.74981
1.86037
1.97594
2.09495
2.2156
2.336
2.45384
2.56665
2.67194
2.7674
2.85103
2.92132
2.97736
3.01898
3.04669
3.0618
3.06632
3.06304
3.05525
1.096
1.08688
1.0883
1.10001
1.12186
1.15372
1.19548
1.24697
1.30807
1.37854
1.45813
1.54643
1.64288
1.74674
1.85701
1.97244
2.09144
2.21223
2.33293
2.45117
2.56439
2.67003
2.76568
2.84929
2.91935
2.97501
3.01617
3.04353
3.05845
3.06289
3.0591
3.04915
1.08446
1.07311
1.07398
1.08587
1.10807
1.14022
1.18213
1.23367
1.29474
1.36521
1.44485
1.53335
1.6302
1.73473
1.846
1.9628
2.08357
2.20649
2.32957
2.4503
2.56596
2.67379
2.77119
2.85596
2.92651
2.98202
3.02253
3.0489
3.06267
3.06584
3.06052
3.04845
1.05825
1.0452
1.04547
1.05733
1.07974
1.11217
1.15435
1.20618
1.26761
1.33855
1.41887
1.50832
1.6065
1.71283
1.82645
1.94618
2.0705
2.19753
2.32504
2.45033
2.57042
2.68223
2.78288
2.8699
2.94159
2.99713
3.03674
3.06157
3.07347
3.07468
3.06751
3.05385
1.01571
1.0014
1.00117
1.01298
1.03559
1.06836
1.11099
1.16339
1.22556
1.29749
1.37912
1.47032
1.57079
1.68005
1.79734
1.92157
2.05124
2.18435
2.31838
2.45035
2.57691
2.69458
2.80002
2.89043
2.96386
3.01953
3.05793
3.08062
3.08998
3.08871
3.07952
3.06469
0.95569
0.940389
0.93978
0.951601
0.974472
1.00768
1.05095
1.1042
1.16749
1.24089
1.32445
1.41813
1.52178
1.63504
1.75727
1.88749
2.02425
2.16539
2.30806
2.44894
2.58421
2.70981
2.82181
2.91687
2.99272
3.04861
3.08537
3.10522
3.11128
3.10697
3.09554
3.0797
0.877244
0.861093
0.860193
0.872089
0.895295
0.929068
0.973131
1.02747
1.09218
1.16745
1.25342
1.35019
1.45774
1.57589
1.70415
1.84167
1.9871
2.13817
2.29166
2.44383
2.59029
2.72625
2.84694
2.94827
3.02747
3.08373
3.11835
3.13447
3.13631
3.12822
3.11413
3.09722
0.779515
0.762555
0.761398
0.773406
0.796994
0.831396
0.876352
0.931897
0.998216
1.07557
1.16423
1.26444
1.37636
1.49997
1.63501
1.78081
1.93619
2.0989
2.26533
2.43127
2.59171
2.74092
2.87308
2.98296
3.067
3.12411
3.15613
3.16746
3.16385
3.15098
3.13356
3.11524
0.661645
0.643856
0.642428
0.654534
0.678489
0.7135
0.759328
0.816058
0.88395
0.963364
1.0547
1.15835
1.27467
1.40385
1.54588
1.70037
1.86639
2.04199
2.22315
2.40527
2.58268
2.74865
2.89595
3.01782
3.10931
3.16863
3.19802
3.20342
3.19276
3.17364
3.15182
3.1314
0.522754
0.504076
0.502319
0.514449
0.538672
0.574158
0.620682
0.678373
0.747557
0.828685
0.922278
1.02889
1.14906
1.28324
1.4317
1.59438
1.77072
1.9594
2.15628
2.35639
2.55364
2.74033
2.90764
3.04672
3.15038
3.21523
3.24325
3.24197
3.22229
3.19475
3.16677
3.1429
0.361938
0.342286
0.3401
0.352119
0.376421
0.412123
0.458998
0.517195
0.587092
0.669206
0.764156
0.872633
0.995357
1.13302
1.2862
1.45523
1.64002
1.83994
2.0518
2.27021
2.48918
2.70048
2.8938
3.05771
3.18169
3.25909
3.2901
3.28308
3.25243
3.21327
3.17614
3.14653
0.178275
0.157545
0.154798
0.166519
0.190632
0.226174
0.272884
0.330904
0.400617
0.482564
0.577411
0.685925
0.80895
0.947366
1.10201
1.27359
1.46254
1.66888
1.8917
2.12558
2.36556
2.60396
2.82969
3.02865
3.18581
3.28889
3.33328
3.32572
3.28368
3.22878
3.17765
3.13848
-0.0291655
-0.0510963
-0.0545529
-0.0433434
-0.0197379
0.0151845
0.0610833
0.118038
0.186373
0.266574
0.359257
0.465156
0.585105
0.720019
0.87086
1.0386
1.2242
1.42857
1.65247
1.89373
2.14893
2.41305
2.67602
2.92196
3.13047
3.28082
3.35886
3.36461
3.31556
3.24105
3.1687
3.11387
-0.261326
-0.284595
-0.288906
-0.278409
-0.25562
-0.221793
-0.177412
-0.122539
-0.0570038
0.019503
0.107398
0.20719
0.319468
0.444905
0.584278
0.738556
0.909066
1.0977
1.30695
1.53936
1.79562
2.07669
2.37676
2.68053
2.96272
3.1915
3.33714
3.38437
3.34314
3.24874
3.14578
3.06607
-0.519178
-0.543943
-0.549217
-0.539556
-0.517796
-0.485447
-0.443226
-0.391443
-0.330214
-0.259571
-0.17951
-0.0900284
0.00886309
0.117149
0.234914
0.362618
0.501594
0.654704
0.826837
1.0247
1.25661
1.53429
1.86145
2.22796
2.6063
2.9526
3.21529
3.35218
3.35186
3.24702
3.10379
2.98559
-0.803786
-0.830226
-0.836486
-0.827612
-0.80687
-0.776132
-0.73647
-0.688573
-0.633009
-0.570357
-0.501299
-0.426694
-0.347631
-0.265422
-0.181399
-0.0963868
-0.00970263
0.0822059
0.187047
0.317075
0.487473
0.725841
1.05496
1.47645
1.96631
2.47108
2.91337
3.21121
3.31128
3.22449
3.03558
2.85957
-1.11641
-1.14473
-1.15185
-1.14342
-1.12328
-1.09383
-1.05664
-1.01293
-0.963917
-0.910952
-0.855706
-0.800304
-0.747462
-0.700503
-0.663076
-0.638307
-0.627176
-0.62617
-0.624841
-0.604462
-0.539572
-0.391821
-0.104713
0.34441
0.944367
1.63954
2.32822
2.87859
3.17053
3.16015
2.93242
2.67279
-1.45868
-1.48914
-1.49673
-1.48793
-1.46737
-1.43815
-1.40254
-1.3625
-1.32004
-1.27754
-1.23792
-1.20498
-1.18357
-1.17974
-1.20039
-1.2521
-1.33882
-1.45833
-1.59818
-1.73277
-1.82354
-1.82328
-1.64209
-1.21698
-0.53499
0.359106
1.34937
2.25268
2.85883
3.02308
2.7873
2.41383
-1.83293
-1.8658
-1.87312
-1.86243
-1.83948
-1.8084
-1.77235
-1.73421
-1.697
-1.66427
-1.64043
-1.6312
-1.64395
-1.68801
-1.77428
-1.91389
-2.11514
-2.37881
-2.69221
-3.02399
-3.32246
-3.52121
-3.5205
-3.19388
-2.49049
-1.42661
-0.111881
1.23281
2.29556
2.77853
2.60528
2.09162
-2.24259
-2.27822
-2.28393
-2.26879
-2.2402
-2.20369
-2.16364
-2.12405
-2.08906
-2.06349
-2.05332
-2.06624
-2.11229
-2.20425
-2.35739
-2.58801
-2.90997
-3.32884
-3.83418
-4.39165
-4.93828
-5.38584
-5.6242
-5.48555
-4.85221
-3.69383
-2.08421
-0.248726
1.41179
2.40299
2.42368
1.76539
-2.69295
-2.7317
-2.73354
-2.70989
-2.67056
-2.62315
-2.57362
-2.52728
-2.48947
-2.46625
-2.46503
-2.49535
-2.56966
-2.7039
-2.91747
-3.23182
-3.66676
-4.23403
-4.92812
-5.71577
-6.52762
-7.25719
-7.7723
-7.89988
-7.44568
-6.31075
-4.49971
-2.18922
0.180245
1.90658
2.33944
1.58511
-3.19221
-3.23442
-3.22866
-3.19012
-3.13242
-3.06613
-2.9993
-2.93874
-2.89096
-2.86305
-2.86359
-2.9035
-2.99707
-3.16267
-3.42291
-3.80342
-4.32934
-5.01885
-5.87327
-6.86489
-7.92505
-8.93798
-9.74821
-10.1768
-10.0052
-9.03543
-7.17469
-4.48521
-1.35478
1.35585
2.53555
1.83538
-3.75337
-3.79912
-3.77946
-3.71606
-3.62872
-3.53234
-3.43771
-3.35321
-3.28631
-3.24482
-3.23792
-3.27734
-3.37833
-3.56062
-3.84858
-4.27025
-4.85433
-5.62421
-6.58839
-7.72786
-8.98201
-10.2376
-11.3283
-12.0584
-12.2221
-11.5512
-9.82283
-6.92345
-3.05817
0.889437
3.29937
2.97884
-4.39751
-4.44592
-4.4013
-4.2972
-4.16359
-4.02176
-3.8858
-3.76552
-3.66887
-3.60368
-3.57913
-3.60691
-3.70239
-3.88541
-4.18053
-4.61649
-5.22346
-6.02759
-7.04234
-8.25669
-9.62179
-11.0385
-12.3507
-13.3527
-13.8333
-13.5392
-12.1048
-9.20041
-4.70086
0.72441
5.0323
5.70455
-5.16011
-5.20726
-5.11718
-4.94641
-4.74195
-4.53397
-4.33998
-4.1704
-4.03259
-3.93345
-3.88119
-3.88671
-3.96462
-4.13387
-4.41832
-4.84604
-5.44679
-6.24701
-7.26199
-8.48552
-9.87822
-11.3568
-12.7874
-13.9843
-14.7253
-14.7607
-13.6978
-10.9605
-5.96265
1.16611
8.26272
10.9989
-6.10448
-6.13689
-5.96069
-5.67912
-5.36715
-5.06573
-4.79415
-4.56106
-4.37122
-4.22904
-4.14067
-4.11538
-4.16613
-4.31051
-4.57104
-4.9743
-5.54844
-6.31851
-7.29937
-8.48658
-9.84644
-11.3074
-12.7549
-14.0313
-14.9331
-15.1846
-14.3923
-11.8255
-6.40654
2.66331
13.6956
20.2724
-7.35329
-7.32603
-6.97716
-6.50742
-6.0336
-5.60434
-5.23417
-4.92465
-4.67443
-4.48324
-4.35386
-4.29284
-4.3111
-4.42469
-4.65453
-5.02537
-5.56322
-6.29092
-7.22158
-8.35039
-9.64594
-11.0429
-12.4382
-13.6905
-14.6197
-14.9502
-14.2054
-11.5146
-5.37793
5.99164
22.3728
35.584
-9.17159
-8.92767
-8.21037
-7.41572
-6.70356
-6.10827
-5.62198
-5.22879
-4.91609
-4.67618
-4.50661
-4.41071
-4.39752
-4.48151
-4.68206
-5.02209
-5.52542
-6.21237
-7.09361
-8.16252
-9.38734
-10.7042
-12.0127
-13.1734
-14.0042
-14.2384
-13.2695
-9.97282
-2.26613
12.6498
36.0882
59.9302
-12.2035
-11.1506
-9.61435
-8.2717
-7.23694
-6.45333
-5.85271
-5.38561
-5.02135
-4.74313
-4.54387
-4.42401
-4.39056
-4.45647
-4.63962
-4.96122
-5.44292
-6.10243
-6.94751
-7.96878
-9.13214
-10.3716
-11.5825
-12.6145
-13.2577
-13.2112
-11.6747
-7.06315
3.46428
24.1467
58.4778
97.083
-18.0804
-13.8747
-10.6339
-8.53365
-7.17371
-6.25829
-5.6106
-5.1328
-4.77286
-4.50469
-4.31736
-4.20975
-4.18826
-4.26534
-4.45818
-4.78677
-5.27092
-5.92583
-6.75618
-7.74919
-8.8671
-10.0391
-11.1516
-12.0334
-12.4249
-11.9126
-9.40322
-2.71411
12.0494
41.4839
95.2831
172.012
-33.6866
-14.1706
-8.1961
-6.10615
-5.17739
-4.65448
-4.30619
-4.05186
-3.86115
-3.72411
-3.6409
-3.61798
-3.66681
-3.80315
-4.04609
-4.41631
-4.93331
-5.6111
-6.45247
-7.44229
-8.53984
-9.66955
-10.7078
-11.4583
-11.5965
-10.5336
-6.90161
1.89281
20.6327
58.6891
138.296
320.631
VECTORS velocity double
-7.28841e-06 7.28833e-06 0
-0.000143981 0.000129404 0
-0.00049834 0.000224955 0
-0.00100208 0.000278786 0
-0.00158385 0.000302985 0
-0.00219738 0.000310548 0
-0.00281773 0.000309798 0
-0.00343223 0.000304707 0
-0.00403329 0.000296347 0
-0.00461379 0.000284154 0
-0.00516471 0.000266769 0
-0.00567403 0.000242546 0
-0.00612647 0.000209899 0
-0.00650396 0.000167586 0
-0.00678654 0.000114994 0
-0.00695394 5.2411e-05 0
-0.0069874 -1.89538e-05 0
-0.00687057 -9.78768e-05 0
-0.00659207 -0.00018062 0
-0.00614969 -0.000261761 0
-0.00555299 -0.000334938 0
-0.00482457 -0.000393483 0
-0.00399988 -0.000431215 0
-0.00312533 -0.000443335 0
-0.00225476 -0.000427234 0
-0.00144457 -0.000382952 0
-0.000748435 -0.000313185 0
-0.000212286 -0.000222965 0
0.000130444 -0.000119766 0
0.000265917 -1.57061e-05 0
0.00021591 6.57122e-05 0
7.50989e-05 7.50987e-05 0
-0.000139754 0.000154331 0
-0.000671771 0.000651071 0
-0.00164114 0.00102702 0
-0.0029086 0.00124792 0
-0.0043475 0.00135452 0
-0.00586679 0.00139184 0
-0.00740844 0.0013905 0
-0.00893607 0.00136615 0
-0.0104239 0.00132375 0
-0.0118484 0.00126183 0
-0.013184 0.00117562 0
-0.0144002 0.00105915 0
-0.0154611 0.000906636 0
-0.0163265 0.000713748 0
-0.0169537 0.000478671 0
-0.0173007 0.00020311 0
-0.0173295 -0.000107397 0
-0.0170108 -0.000445011 0
-0.0163289 -0.0007938 0
-0.0152875 -0.00113245 0
-0.0139121 -0.00143631 0
-0.0122529 -0.00167968 0
-0.0103839 -0.00183874 0
-0.00839943 -0.00189484 0
-0.00640829 -0.00183744 0
-0.00452519 -0.00166603 0
-0.00286098 -0.00139045 0
-0.0015124 -0.00103043 0
-0.000550894 -0.000616545 0
-7.46123e-06 -0.000197833 0
0.000152866 0.000137518 0
7.33863e-05 0.000223584 0
-0.00026825 0.000562334 0
-0.00116846 0.0016753 0
-0.00266994 0.00247364 0
-0.00455108 0.00294989 0
-0.00664826 0.00318863 0
-0.00884754 0.0032763 0
-0.0110727 0.00327285 0
-0.0132716 0.00321029 0
-0.0154039 0.00309974 0
-0.0174327 0.00293918 0
-0.0193185 0.00271969 0
-0.021017 0.00242971 0
-0.0224783 0.00205821 0
-0.023648 0.00159729 0
-0.02447 0.00104447 0
-0.0248905 0.000404735 0
-0.0248624 -0.000308278 0
-0.0243529 -0.00107245 0
-0.0233487 -0.00185232 0
-0.0218612 -0.00260297 0
-0.0199293 -0.00327305 0
-0.0176222 -0.00380914 0
-0.0150388 -0.00416169 0
-0.0123036 -0.00429158 0
-0.00955912 -0.00417637 0
-0.00695477 -0.00381456 0
-0.00463382 -0.00322708 0
-0.00271926 -0.00245694 0
-0.0012994 -0.0015714 0
-0.000410959 -0.000674857 0
-1.53484e-05 5.86032e-05 0
3.48298e-05 0.000331799 0
-0.000371168 0.00120175 0
-0.00157399 0.00313891 0
-0.00351452 0.00445205 0
-0.00588965 0.00522774 0
-0.00850102 0.00561934 0
-0.0112187 0.00576256 0
-0.0139562 0.00574922 0
-0.016652 0.0056286 0
-0.0192565 0.00541831 0
-0.021723 0.00511589 0
-0.0240023 0.00470806 0
-0.02604 0.00417755 0
-0.0277765 0.00350806 0
-0.0291478 0.0026885 0
-0.0300892 0.00171671 0
-0.0305391 0.000602824 0
-0.0304453 -0.000628199 0
-0.0297729 -0.00193446 0
-0.0285103 -0.00325714 0
-0.0266727 -0.00452327 0
-0.0243078 -0.00564959 0
-0.0214982 -0.0065492 0
-0.0183624 -0.00714084 0
-0.0150501 -0.00735986 0
-0.0117337 -0.00716904 0
-0.00859323 -0.0065667 0
-0.00579891 -0.0055902 0
-0.003492 -0.00431529 0
-0.00176746 -0.00285744 0
-0.000658045 -0.00138667 0
-0.000115853 -0.00016739 0
1.25658e-05 0.000379195 0
-0.000450049 0.00202297 0
-0.00189047 0.00496094 0
-0.00418128 0.00686136 0
-0.00694972 0.007962 0
-0.00996551 0.00851224 0
-0.0130853 0.00870712 0
-0.0162159 0.00867282 0
-0.0192911 0.00847597 0
-0.0222559 0.00814027 0
-0.0250579 0.00766239 0
-0.0276415 0.00702443 0
-0.0299458 0.00620319 0
-0.031904 0.00517705 0
-0.033445 0.00393188 0
-0.0344966 0.0024663 0
-0.0349901 0.000796665 0
-0.0348673 -0.00103863 0
-0.0340881 -0.00297564 0
-0.0326363 -0.00493043 0
-0.0305252 -0.00679866 0
-0.027804 -0.00846027 0
-0.0245638 -0.00978834 0
-0.020939 -0.0106623 0
-0.0171051 -0.0109845 0
-0.0132682 -0.0106977 0
-0.00964684 -0.0097999 0
-0.00644647 -0.00835169 0
-0.00383226 -0.00647494 0
-0.0019055 -0.0043491 0
-0.000687731 -0.00222219 0
-0.000107588 -0.000454203 0
1.91203e-05 0.00041088 0
-0.000510219 0.00298324 0
-0.00213473 0.00706561 0
-0.00470097 0.00961373 0
-0.00778129 0.0110584 0
-0.0111185 0.0117689 0
-0.0145582 0.01201 0
-0.0180031 0.0119455 0
-0.0213848 0.0116601 0
-0.0246467 0.0111828 0
-0.0277339 0.0105089 0
-0.0305875 0.00961518 0
-0.0331425 0.00847175 0
-0.0353268 0.00705099 0
-0.0370628 0.00533494 0
-0.0382704 0.00332241 0
-0.038872 0.0010357 0
-0.0387995 -0.00147295 0
-0.0380021 -0.00411798 0
-0.0364521 -0.00678987 0
-0.0341521 -0.00935037 0
-0.0311442 -0.0116376 0
-0.0275188 -0.0134767 0
-0.0234207 -0.0146968 0
-0.0190499 -0.0151547 0
-0.0146524 -0.0147619 0
-0.010499 -0.0135105 0
-0.00685049 -0.01149 0
-0.0039151 -0.00888626 0
-0.00181137 -0.00596826 0
-0.000546749 -0.00308543 0
-8.70315e-06 -0.000709157 0
5.0211e-05 0.000480211 0
-0.000556566 0.00405002 0
-0.00232423 0.009391 0
-0.00510749 0.0126378 0
-0.00843715 0.0144443 0
-0.0120352 0.0153183 0
-0.015739 0.015604 0
-0.0194494 0.0155068 0
-0.0230985 0.0151297 0
-0.0266308 0.0145074 0
-0.0299918 0.0136326 0
-0.0331222 0.0124757 0
-0.0359549 0.0109989 0
-0.0384136 0.00916689 0
-0.0404146 0.00695602 0
-0.0418691 0.00436333 0
-0.042688 0.00141531 0
-0.0427897 -0.00182338 0
-0.0421069 -0.00524769 0
-0.0405931 -0.00872398 0
-0.0382298 -0.0120796 0
-0.0350385 -0.0151075 0
-0.031094 -0.0175766 0
-0.0265371 -0.0192519 0
-0.0215831 -0.0199245 0
-0.0165199 -0.0194528 0
-0.0116868 -0.0178061 0
-0.00742956 -0.0151002 0
-0.00403611 -0.0116049 0
-0.00167119 -0.00771823 0
-0.000336404 -0.00393486 0
0.000137845 -0.000872015 0
9.57891e-05 0.000626211 0
-0.000592807 0.00519939 0
-0.00247325 0.0118897 0
-0.00542978 0.0158789 0
-0.00896249 0.0180656 0
-0.0127784 0.019111 0
-0.0167099 0.0194466 0
-0.0206583 0.019323 0
-0.024559 0.0188633 0
-0.02836 0.0181071 0
-0.0320102 0.0170441 0
-0.0354526 0.0156369 0
-0.0386201 0.0138378 0
-0.0414345 0.0116012 0
-0.0438068 0.00889501 0
-0.0456395 0.00571154 0
-0.0468318 0.0020783 0
-0.0472858 -0.00193065 0
-0.0469144 -0.00619458 0
-0.0456443 -0.010561 0
-0.0434226 -0.0148277 0
-0.0402298 -0.0187435 0
-0.0360995 -0.0220154 0
-0.031142 -0.0243276 0
-0.0255664 -0.0253783 0
-0.0196933 -0.0249353 0
-0.0139417 -0.0229082 0
-0.00877918 -0.0194178 0
-0.00462997 -0.01483 0
-0.00176287 -0.00972519 0
-0.000206517 -0.00481905 0
0.000270754 -0.000939349 0
0.000142177 0.000864178 0
-0.000621463 0.00641366 0
-0.0025919 0.0145263 0
-0.00568902 0.0192959 0
-0.00939065 0.0218829 0
-0.013394 0.023113 0
-0.0175296 0.0235117 0
-0.021702 0.0233787 0
-0.0258522 0.0228584 0
-0.029935 0.0219958 0
-0.0339058 0.0207765 0
-0.0377128 0.0191539 0
-0.0412928 0.0170683 0
-0.0445688 0.0144611 0
-0.04745 0.0112885 0
-0.0498336 0.00753443 0
-0.0516091 0.00322317 0
-0.052663 -0.00156757 0
-0.0528847 -0.00670739 0
-0.0521657 -0.0120373 0
-0.0503995 -0.0173393 0
-0.047497 -0.0223272 0
-0.0434142 -0.0266446 0
-0.0381923 -0.0298779 0
-0.0319997 -0.0315962 0
-0.0251658 -0.0314243 0
-0.0181878 -0.0291489 0
-0.0116864 -0.0248411 0
-0.00629324 -0.018949 0
-0.00247545 -0.012291 0
-0.000365248 -0.00591978 0
0.000307803 -0.000988944 0
0.000171898 0.00117825 0
-0.000643973 0.0076791 0
-0.00268627 0.0172736 0
-0.00589827 0.0228578 0
-0.00974229 0.0258667 0
-0.0139098 0.0273 0
-0.0182327 0.0277832 0
-0.0226212 0.0276682 0
-0.0270247 0.0271226 0
-0.031408 0.0261975 0
-0.0357368 0.0248743 0
-0.0399696 0.023096 0
-0.0440521 0.0207888 0
-0.0479146 0.0178791 0
-0.0514712 0.0143082 0
-0.0546206 0.0100478 0
-0.0572483 0.00511298 0
-0.0592263 -0.000425461 0
-0.0604149 -0.00643925 0
-0.0606561 -0.0127833 0
-0.0597656 -0.0192499 0
-0.0575491 -0.0255357 0
-0.0538444 -0.0312235 0
-0.0485805 -0.0357848 0
-0.0418431 -0.0386194 0
-0.0339342 -0.0391438 0
-0.0254061 -0.0369355 0
-0.0170417 -0.0319203 0
-0.00974271 -0.024562 0
-0.00429687 -0.0159417 0
-0.00107713 -0.00759902 0
0.00014703 -0.00120691 0
0.000164503 0.00151465 0
-0.000660866 0.00898394 0
-0.00275889 0.0201091 0
-0.00606338 0.0265388 0
-0.0100266 0.0299929 0
-0.0143376 0.0316523 0
-0.018832 0.0322481 0
-0.0234283 0.0321881 0
-0.0280872 0.0316652 0
-0.0327871 0.0307381 0
-0.0375093 0.0293847 0
-0.0422285 0.0275376 0
-0.0469076 0.0251087 0
-0.0514933 0.0220074 0
-0.0559149 0.018158 0
-0.0600818 0.0135144 0
-0.0638806 0.00807283 0
-0.0671681 0.0018802 0
-0.0697613 -0.00496312 0
-0.0714306 -0.0123489 0
-0.0718883 -0.0201171 0
-0.0708025 -0.0279708 0
-0.0678589 -0.0354367 0
-0.0628394 -0.041855 0
-0.0557087 -0.0464172 0
-0.0466968 -0.0482667 0
-0.0363648 -0.0466728 0
-0.0256272 -0.0412849 0
-0.0156785 -0.032445 0
-0.00774385 -0.0214392 0
-0.00263434 -0.0104308 0
-0.000321981 -0.00191168 0
0.000100403 0.00177956 0
-0.000671999 0.0103168 0
-0.00280964 0.0230119 0
-0.00618452 0.0303153 0
-0.0102435 0.0342385 0
-0.0146758 0.03615 0
-0.0193223 0.0368914 0
-0.0241119 0.0369306 0
-0.0290196 0.0364893 0
-0.0340419 0.0356362 0
-0.0391813 0.0343481 0
-0.044437 0.0325492 0
-0.049799 0.0301382 0
-0.055243 0.0270077 0
-0.0607253 0.0230616 0
-0.0661749 0.0182272 0
-0.0714804 0.0124643 0
-0.076472 0.00576778 0
-0.0808994 -0.00183009 0
-0.0844351 -0.0102769 0
-0.0866698 -0.0194969 0
-0.0871214 -0.0292252 0
-0.0853095 -0.0389378 0
-0.0808524 -0.0478306 0
-0.0735657 -0.0548589 0
-0.0635607 -0.0588419 0
-0.0513391 -0.0586512 0
-0.0378716 -0.0535116 0
-0.0246016 -0.043437 0
-0.013254 -0.0297295 0
-0.0053001 -0.015204 0
-0.00119345 -0.00355749 0
-3.52071e-05 0.00184476 0
-0.000676841 0.0116656 0
-0.0028368 0.0259607 0
-0.00625835 0.034163 0
-0.010387 0.0385785 0
-0.0149134 0.0407687 0
-0.0196851 0.041691 0
-0.0246426 0.0418781 0
-0.0297779 0.0415849 0
-0.0351095 0.0408946 0
-0.0406676 0.0397872 0
-0.0464849 0.0381831 0
-0.0525896 0.035971 0
-0.0589983 0.0330276 0
-0.0657044 0.0292302 0
-0.0726602 0.024464 0
-0.0797502 0.0186231 0
-0.08676 0.0116103 0
-0.0933523 0.0033471 0
-0.0990689 -0.00620173 0
-0.103371 -0.0170354 0
-0.105652 -0.0289542 0
-0.105281 -0.0413916 0
-0.101717 -0.0533978 0
-0.0946112 -0.0636841 0
-0.0839094 -0.0707236 0
-0.0699711 -0.0729294 0
-0.0537069 -0.0689651 0
-0.0366921 -0.0582682 0
-0.0211174 -0.0418206 0
-0.00929483 -0.0228893 0
-0.00254666 -0.00672701 0
-0.000250085 0.00155946 0
-0.00067481 0.0130173 0
-0.00283828 0.0289324 0
-0.00628038 0.0380549 0
-0.0104486 0.0429835 0
-0.0150354 0.0454769 0
-0.0198948 0.0466139 0
-0.0249795 0.0469973 0
-0.0303001 0.0469214 0
-0.0359006 0.0464901 0
-0.0418441 0.0456934 0
-0.0482042 0.0444543 0
-0.0550561 0.0426565 0
-0.0624654 0.0401599 0
-0.0704669 0.0368054 0
-0.0790334 0.0324111 0
-0.088034 0.0267666 0
-0.0971947 0.0196372 0
-0.106077 0.0107948 0
-0.114091 8.12802e-05 0
-0.120573 -0.0125346 0
-0.124828 -0.0269186 0
-0.126131 -0.0424954 0
-0.123804 -0.0581853 0
-0.11733 -0.0724765 0
-0.106449 -0.0835136 0
-0.0912898 -0.0892368 0
-0.07256 -0.0876517 0
-0.0517852 -0.0773711 0
-0.0314704 -0.0586072 0
-0.0148262 -0.0345694 0
-0.00447821 -0.0121431 0
-0.000554284 0.000755093 0
-0.000665647 0.0143578 0
-0.00281303 0.0319028 0
-0.00624773 0.0419613 0
-0.0104214 0.047419 0
-0.0150274 0.0502343 0
-0.019925 0.0516133 0
-0.0250781 0.0522357 0
-0.0305159 0.0524415 0
-0.036309 0.0523636 0
-0.0425558 0.0520103 0
-0.0493737 0.0513153 0
-0.0568879 0.0501616 0
-0.0652129 0.0483891 0
-0.0744213 0.0457862 0
-0.0844984 0.042074 0
-0.0952908 0.0368969 0
-0.106466 0.0298423 0
-0.117499 0.0205053 0
-0.127706 0.00859211 0
-0.136305 -0.00596497 0
-0.142543 -0.0229944 0
-0.145676 -0.0419838 0
-0.144935 -0.0617654 0
-0.139649 -0.0806564 0
-0.129329 -0.0965349 0
-0.11379 -0.106914 0
-0.0933858 -0.109109 0
-0.0693648 -0.100709 0
-0.0442837 -0.0806648 0
-0.0221192 -0.0513204 0
-0.00715382 -0.0207056 0
-0.000980517 -0.000779708 0
-0.000649824 0.0156732 0
-0.00276252 0.0348475 0
-0.00616203 0.0458509 0
-0.0103045 0.0518455 0
-0.0148822 0.0549916 0
-0.0197564 0.0566278 0
-0.0248999 0.0575178 0
-0.030358 0.0580554 0
-0.0362255 0.0584103 0
-0.0426336 0.0586185 0
-0.0497396 0.058631 0
-0.0577127 0.0583331 0
-0.0667081 0.057538 0
-0.0768261 0.0559637 0
-0.0880582 0.0532057 0
-0.100233 0.0487324 0
-0.112981 0.0419298 0
-0.125736 0.0322055 0
-0.137768 0.0191315 0
-0.148259 0.0025847 0
-0.156398 -0.0171663 0
-0.161435 -0.0396415 0
-0.162603 -0.0636805 0
-0.15912 -0.0875102 0
-0.150271 -0.108851 0
-0.135504 -0.124903 0
-0.114675 -0.132353 0
-0.0885079 -0.127654 0
-0.0592633 -0.108046 0
-0.0313473 -0.0740197 0
-0.0108028 -0.0335163 0
-0.00159243 -0.00335266 0
-0.000628972 0.016952 0
-0.00269234 0.0377447 0
-0.00603249 0.0496932 0
-0.0101079 0.0562211 0
-0.0146056 0.0596913 0
-0.0193848 0.0615815 0
-0.0244229 0.0627456 0
-0.0297761 0.0636389 0
-0.0355573 0.0644755 0
-0.0419217 0.0653258 0
-0.0490555 0.0661636 0
-0.0571577 0.0668759 0
-0.0664095 0.0672423 0
-0.0769278 0.0668958 0
-0.0887115 0.0652894 0
-0.101592 0.0617037 0
-0.115205 0.0553206 0
-0.129002 0.0453653 0
-0.142277 0.0312794 0
-0.154229 0.0128793 0
-0.164013 -0.00953768 0
-0.170907 -0.035339 0
-0.174219 -0.0635026 0
-0.173126 -0.0922644 0
-0.166733 -0.11934 0
-0.154107 -0.141807 0
-0.134492 -0.155892 0
-0.107842 -0.156932 0
-0.0757276 -0.140126 0
-0.042483 -0.1031 0
-0.0156573 -0.0518064 0
-0.00249255 -0.00743764 0
-0.000606337 0.0181873 0
-0.00261385 0.0405803 0
-0.00587912 0.0534631 0
-0.00985683 0.0605044 0
-0.0142229 0.0642717 0
-0.0188296 0.0663871 0
-0.023653 0.0678015 0
-0.0287534 0.0690367 0
-0.0342515 0.070357 0
-0.0403138 0.071871 0
-0.0471384 0.0735768 0
-0.0549351 0.0753616 0
-0.0638931 0.0769664 0
-0.0741378 0.0779348 0
-0.0856824 0.0775787 0
-0.0983881 0.0750004 0
-0.111945 0.069195 0
-0.125878 0.0592201 0
-0.139569 0.0443908 0
-0.1523 0.0244502 0
-0.163306 -0.00031836 0
-0.171889 -0.0290818 0
-0.177419 -0.0609176 0
-0.179169 -0.0941925 0
-0.176163 -0.126811 0
-0.167122 -0.156002 0
-0.150615 -0.177818 0
-0.125609 -0.186662 0
-0.0925805 -0.175539 0
-0.055188 -0.138324 0
-0.0218884 -0.0767072 0
-0.00382994 -0.0137601 0
-0.00058728 0.0193809 0
-0.00254598 0.0433529 0
-0.00573595 0.0571457 0
-0.00959632 0.0646599 0
-0.0137847 0.0686707 0
-0.018141 0.0709512 0
-0.0226342 0.072554 0
-0.0273208 0.0740711 0
-0.0323184 0.0758183 0
-0.0377892 0.0779427 0
-0.0439244 0.0804649 0
-0.0509245 0.0832702 0
-0.0589708 0.0860621 0
-0.0681901 0.0883031 0
-0.078619 0.0891837 0
-0.0901758 0.0876579 0
-0.102646 0.0825655 0
-0.115685 0.0728209 0
-0.128824 0.05762 0
-0.141495 0.0366228 0
-0.153063 0.010083 0
-0.162877 -0.021087 0
-0.170441 -0.0558174 0
-0.175242 -0.0927421 0
-0.176346 -0.130163 0
-0.172231 -0.165805 0
-0.160791 -0.195963 0
-0.13985 -0.214465 0
-0.108414 -0.2122 0
-0.0688171 -0.178653 0
-0.0295688 -0.108927 0
-0.00578896 -0.023379 0
-0.000579905 0.0205481 0
-0.00251732 0.0460818 0
-0.00565459 0.060744 0
-0.00939588 0.0686632 0
-0.0133718 0.0728316 0
-0.0174056 0.0751804 0
-0.0214552 0.0768676 0
-0.0255669 0.0785557 0
-0.0298454 0.0806098 0
-0.0344349 0.0832114 0
-0.0395031 0.0863996 0
-0.0452242 0.0900567 0
-0.0517579 0.0938556 0
-0.0592267 0.0971978 0
-0.067695 0.0991862 0
-0.0771529 0.09867 0
-0.0875067 0.0943779 0
-0.0985738 0.0851142 0
-0.110081 0.0699727 0
-0.121667 0.0485273 0
-0.132898 0.0209768 0
-0.143289 -0.0117761 0
-0.152492 -0.0483596 0
-0.160231 -0.0876604 0
-0.165807 -0.128565 0
-0.167637 -0.169688 0
-0.163042 -0.208114 0
-0.148647 -0.23765 0
-0.121677 -0.24742 0
-0.0824913 -0.222216 0
-0.0386254 -0.148478 0
-0.00853263 -0.0377006 0
-0.000595982 0.021724 0
-0.00256897 0.0488164 0
-0.00570842 0.0642862 0
-0.00935353 0.0725074 0
-0.0130984 0.0767082 0
-0.0167487 0.0789879 0
-0.0202511 0.0806121 0
-0.0236393 0.082311 0
-0.0269993 0.0844931 0
-0.0304485 0.0873668 0
-0.0341202 0.090984 0
-0.0381511 0.0952243 0
-0.0426703 0.0997409 0
-0.0477904 0.103901 0
-0.0536014 0.106762 0
-0.0601667 0.107118 0
-0.0675186 0.103636 0
-0.0756501 0.0950546 0
-0.0845047 0.0803938 0
-0.0939668 0.0591542 0
-0.103861 0.0314755 0
-0.113977 -0.00176825 0
-0.124136 -0.0390044 0
-0.134311 -0.0791016 0
-0.144213 -0.121647 0
-0.152448 -0.166542 0
-0.155999 -0.212305 0
-0.150375 -0.253479 0
-0.130843 -0.278094 0
-0.0951805 -0.266391 0
-0.0487909 -0.194558 0
-0.0121354 -0.0583687 0
-0.00065256 0.0229726 0
-0.00275912 0.0516474 0
-0.00599841 0.067834 0
-0.00960068 0.0762071 0
-0.0131149 0.0802677 0
-0.0163336 0.0822974 0
-0.0191988 0.0836703 0
-0.0217356 0.0851778 0
-0.024012 0.0872627 0
-0.0261163 0.0901507 0
-0.028144 0.0938995 0
-0.0301909 0.0983866 0
-0.0323522 0.103259 0
-0.0347261 0.107877 0
-0.0374218 0.111293 0
-0.0405658 0.112296 0
-0.0443039 0.109547 0
-0.0487956 0.101767 0
-0.0542012 0.0879422 0
-0.0606651 0.0675318 0
-0.0683042 0.0406318 0
-0.0772052 0.00809185 0
-0.0874211 -0.0284894 0
-0.0991931 -0.0676695 0
-0.1127 -0.10967 0
-0.127019 -0.155965 0
-0.139185 -0.207166 0
-0.143917 -0.259509 0
-0.134542 -0.30097 0
-0.105766 -0.307953 0
-0.0595971 -0.245554 0
-0.0165606 -0.0870647 0
-0.000774989 0.0244001 0
-0.00317092 0.0547223 0
-0.00666219 0.0714896 0
-0.010308 0.0797995 0
-0.013608 0.0834893 0
-0.0163563 0.0850428 0
-0.0185063 0.0859403 0
-0.0200864 0.0870247 0
-0.0211542 0.08876 0
-0.0217741 0.0913777 0
-0.022008 0.0949341 0
-0.0219146 0.0993056 0
-0.021558 0.104145 0
-0.0210221 0.10883 0
-0.0204275 0.112442 0
-0.0199465 0.11381 0
-0.0198135 0.111638 0
-0.0203269 0.104681 0
-0.0218372 0.0919439 0
-0.0247288 0.0728856 0
-0.0294043 0.0475925 0
-0.0362736 0.0169014 0
-0.0457091 -0.0176476 0
-0.0581284 -0.0543199 0
-0.0740214 -0.0936198 0
-0.0931713 -0.138546 0
-0.113249 -0.19234 0
-0.12882 -0.254032 0
-0.131632 -0.31301 0
-0.113048 -0.343273 0
-0.0703798 -0.29907 0
-0.0216695 -0.125295 0
-0.00100286 0.026178 0
-0.00392688 0.0582644 0
-0.00788855 0.0754004 0
-0.0116932 0.0833391 0
-0.0147992 0.0863557 0
-0.0170345 0.08716 0
-0.0183929 0.0873315 0
-0.0189266 0.0877473 0
-0.0186971 0.0888757 0
-0.0177554 0.0909402 0
-0.0161389 0.0939889 0
-0.013879 0.0978975 0
-0.0110171 0.102334 0
-0.00762668 0.106714 0
-0.0038353 0.110172 0
0.00015536 0.111608 0
0.00404509 0.109817 0
0.0074252 0.103635 0
0.00979129 0.0921337 0
0.0105622 0.0748165 0
0.00909916 0.0518002 0
0.00471234 0.0239498 0
-0.00334272 -0.00720553 0
-0.015553 -0.0401324 0
-0.0323414 -0.0751259 0
-0.0541791 -0.116053 0
-0.0800398 -0.168895 0
-0.105367 -0.236579 0
-0.121186 -0.311832 0
-0.115665 -0.368557 0
-0.080211 -0.351908 0
-0.0272071 -0.174171 0
-0.00140177 0.0285826 0
-0.00521493 0.062597 0
-0.00993955 0.0797542 0
-0.0140274 0.0868778 0
-0.0169349 0.0888306 0
-0.0185837 0.0885692 0
-0.0190539 0.0877508 0
-0.0184509 0.0872587 0
-0.0168578 0.0875417 0
-0.0143245 0.0887993 0
-0.0108745 0.0910633 0
-0.00652226 0.0942108 0
-0.00129439 0.0979311 0
0.00475037 0.101682 0
0.0114838 0.104679 0
0.0186652 0.105929 0
0.0259217 0.104351 0
0.03274 0.0989035 0
0.0384717 0.0887675 0
0.042357 0.0735264 0
0.0435675 0.0533429 0
0.0412799 0.0290816 0
0.0348024 0.0021952 0
0.0236864 -0.0262068 0
0.00761498 -0.0561916 0
-0.0142348 -0.0912995 0
-0.0424367 -0.139586 0
-0.0745376 -0.208461 0
-0.102397 -0.296272 0
-0.11188 -0.380156 0
-0.0876863 -0.399956 0
-0.0327175 -0.234096 0
-0.00208644 0.0320708 0
-0.00733324 0.0681687 0
-0.0131772 0.084751 0
-0.0176273 0.0904189 0
-0.0202454 0.0908152 0
-0.0211513 0.0891394 0
-0.0205771 0.0870765 0
-0.0187159 0.0854689 0
-0.0156898 0.0847123 0
-0.0115568 0.0849623 0
-0.00633223 0.0862258 0
-1.64652e-05 0.0883803 0
0.00738138 0.0911359 0
0.0158076 0.0940058 0
0.0251185 0.0963105 0
0.0350391 0.0971956 0
0.0451352 0.0957314 0
0.0548053 0.0910341 0
0.0632903 0.0824202 0
0.0697093 0.0695694 0
0.0731301 0.0526686 0
0.0726903 0.0324834 0
0.0677551 0.010206 0
0.0579322 -0.0132787 0
0.043086 -0.0382021 0
0.0230149 -0.0673681 0
-0.00367237 -0.108628 0
-0.0378132 -0.173177 0
-0.0744303 -0.26708 0
-0.0992641 -0.375032 0
-0.0905207 -0.438017 0
-0.0373553 -0.304169 0
-0.00326384 0.0374211 0
-0.010756 0.0755574 0
-0.0180653 0.0905157 0
-0.0227745 0.0938135 0
-0.0247965 0.0920606 0
-0.0246186 0.0886221 0
-0.0227065 0.0851075 0
-0.0193732 0.0822435 0
-0.0147897 0.0803282 0
-0.0090242 0.0794478 0
-0.00208282 0.0795744 0
0.00605391 0.0805793 0
0.0153924 0.0822006 0
0.0258793 0.0840281 0
0.0373574 0.0854991 0
0.0495256 0.0859181 0
0.0619093 0.0845291 0
0.0738546 0.0806211 0
0.0845461 0.0736567 0
0.0930575 0.0634025 0
0.0984416 0.0500306 0
0.0998646 0.0341383 0
0.09676 0.0165908 0
0.0888798 -0.00196042 0
0.0761285 -0.0219229 0
0.0583406 -0.0457882 0
0.0347727 -0.0799528 0
0.00336278 -0.136301 0
-0.0362952 -0.22768 0
-0.0743442 -0.351548 0
-0.0849233 -0.459665 0
-0.039543 -0.381067 0
-0.00529888 0.0459838 0
-0.01617 0.0853579 0
-0.0249967 0.0968511 0
-0.0293393 0.0965299 0
-0.0299601 0.091987 0
-0.0279536 0.0865113 0
-0.0240973 0.0814498 0
-0.0188366 0.0773071 0
-0.0123859 0.0742305 0
-0.00481398 0.072208 0
0.0038927 0.0711661 0
0.0137778 0.0709657 0
0.024866 0.0713874 0
0.0371132 0.0721071 0
0.0503651 0.07269 0
0.0643184 0.0726059 0
0.0784952 0.0712807 0
0.0922419 0.0681775 0
0.104755 0.0628954 0
0.115144 0.055264 0
0.122523 0.0454059 0
0.126142 0.0337212 0
0.125509 0.0207448 0
0.120455 0.00682055 0
0.110986 -0.00848378 0
0.09686 -0.0273137 0
0.0772937 -0.0552931 0
0.0504935 -0.102751 0
0.0134636 -0.184543 0
-0.0323847 -0.310789 0
-0.0647705 -0.45746 0