# vtk DataFile Version 2.0
Lid-driven cavity
ASCII
DATASET STRUCTURED_POINTS
DIMENSIONS 32 32 1
ORIGIN 0.015625 0.015625 0
SPACING 0.03125 0.03125 1
POINT_DATA 1024
SCALARS pressure double 1
LOOKUP_TABLE default
-0.190794
-0.192277
-0.189097
-0.180083
-0.165078
-0.144222
-0.117719
-0.0857911
-0.0486792
-0.00665866
0.0399532
0.0907899
0.145431
0.203398
0.26415
0.327085
0.391537
0.456793
0.522109
0.586666
0.649596
0.709999
0.766969
0.819613
0.867071
0.908546
0.943321
0.970792
0.990509
1.00229
1.00651
1.00489
-0.189315
-0.190818
-0.187088
-0.177724
-0.162609
-0.141794
-0.115418
-0.0836651
-0.0467614
-0.00497371
0.0413854
0.0919534
0.146313
0.20399
0.264447
0.327085
0.39124
0.456198
0.521229
0.585517
0.648189
0.70835
0.765093
0.817526
0.864794
0.906104
0.940758
0.96819
0.98802
1.00016
1.00494
1.00327
-0.192691
-0.194803
-0.191052
-0.181529
-0.166274
-0.145362
-0.118911
-0.0870876
-0.0501028
-0.00821288
0.0382777
0.0890133
0.143583
0.201518
0.262286
0.325292
0.389873
0.455307
0.520864
0.585717
0.64898
0.709743
0.767081
0.820083
0.867876
0.90965
0.944698
0.972454
0.992543
1.00484
1.00955
1.00712
-0.202469
-0.205056
-0.201396
-0.191775
-0.176337
-0.155193
-0.128465
-0.0963133
-0.0589385
-0.0165878
0.0304432
0.0818071
0.137101
0.195862
0.257563
0.321613
0.387348
0.45404
0.520932
0.587176
0.651865
0.714056
0.772789
0.827114
0.876115
0.918948
0.954874
0.9833
1.00383
1.0163
1.02084
1.0178
-0.219209
-0.2221
-0.218495
-0.208742
-0.193034
-0.171506
-0.144288
-0.111538
-0.0734506
-0.0302652
0.0177314
0.0702004
0.126747
0.186916
0.250185
0.315965
0.383591
0.452323
0.521365
0.589837
0.656796
0.721252
0.782192
0.838602
0.889504
0.933993
0.971278
1.00073
1.02192
1.03467
1.0391
1.03564
-0.243174
-0.246278
-0.242664
-0.2327
-0.216603
-0.194521
-0.166589
-0.132964
-0.0938361
-0.0494367
-4.44136e-05
0.0540114
0.112345
0.174509
0.239987
0.30819
0.37845
0.450014
0.522036
0.593598
0.663705
0.731304
0.795301
0.8546
0.908131
0.954907
0.994062
1.02491
1.047
1.06017
1.06459
1.06077
-0.274592
-0.277883
-0.274199
-0.263932
-0.247313
-0.224497
-0.195624
-0.160846
-0.120351
-0.0743617
-0.0231477
0.0329719
0.0936219
0.158364
0.22669
0.298013
0.371661
0.446863
0.522725
0.598279
0.672465
0.744144
0.812122
0.875184
0.932142
0.981892
1.02347
1.05613
1.07939
1.09312
1.09757
1.09339
-0.313744
-0.317228
-0.313428
-0.302765
-0.285486
-0.261755
-0.231712
-0.195509
-0.153327
-0.105382
-0.0519317
0.00671614
0.0701998
0.138094
0.209901
0.28504
0.362836
0.442504
0.523103
0.603605
0.682869
0.759652
0.832628
0.90043
0.961711
1.01521
1.05983
1.09475
1.11946
1.13389
1.13839
1.13377
-0.360986
-0.364687
-0.360733
-0.349583
-0.331508
-0.306681
-0.275246
-0.237353
-0.193176
-0.142923
-0.0868394
-0.0252177
0.0415973
0.113198
0.189105
0.268749
0.351459
0.436441
0.522713
0.609178
0.694607
0.777626
0.856744
0.930399
0.99703
1.05517
1.10354
1.14122
1.16768
1.18291
1.18745
1.18228
-0.416759
-0.420708
-0.416566
-0.404842
-0.385837
-0.359739
-0.326695
-0.286856
-0.24039
-0.187494
-0.128402
-0.0633861
0.00722991
0.0830649
0.163664
0.248483
0.336866
0.428021
0.520939
0.614452
0.707228
0.797746
0.884309
0.965106
1.03829
1.10211
1.15507
1.19606
1.22456
1.24069
1.24521
1.23937
-0.481587
-0.48582
-0.481459
-0.469075
-0.449007
-0.421464
-0.386601
-0.344569
-0.295533
-0.239682
-0.177233
-0.108438
-0.0335891
0.0469653
0.132809
0.223438
0.318229
0.416412
0.516972
0.618674
0.720086
0.819517
0.915025
1.00448
1.08565
1.15642
1.21492
1.25988
1.29075
1.30782
1.3122
1.30551
-0.556084
-0.560644
-0.556032
-0.542899
-0.521634
-0.492471
-0.45558
-0.411118
-0.359248
-0.300152
-0.234031
-0.16111
-0.0816478
0.00405388
0.0956333
0.192645
0.294526
0.400555
0.509749
0.620825
0.732261
0.842183
0.948367
1.04827
1.13919
1.21844
1.2837
1.33338
1.36692
1.38492
1.38895
1.38116
-0.640963
-0.645897
-0.641001
-0.627024
-0.604418
-0.573454
-0.534325
-0.487198
-0.432243
-0.369635
-0.299561
-0.222221
-0.137829
-0.0466308
0.0510847
0.154956
0.264514
0.379127
0.497895
0.61953
0.742447
0.864605
0.983456
1.09597
1.19878
1.28846
1.36199
1.41731
1.45384
1.47261
1.47595
1.46675
-0.73705
-0.742408
-0.737185
-0.722256
-0.69815
-0.66519
-0.6236
-0.573571
-0.515284
-0.44892
-0.374653
-0.292656
-0.203098
-0.106155
-0.0020253
0.109043
0.226714
0.350498
0.479644
0.612949
0.748815
0.885073
1.01885
1.14655
1.26394
1.36656
1.45033
1.51246
1.55229
1.57152
1.57362
1.56254
-0.845294
-0.851133
-0.845532
-0.829517
-0.803723
-0.76854
-0.724242
-0.671055
-0.609189
-0.538837
-0.460172
-0.373344
-0.278475
-0.175665
-0.0650036
0.0534037
0.179397
0.312694
0.452771
0.598656
0.748816
0.901059
1.05224
1.19814
1.33346
1.45231
1.54904
1.61962
1.66312
1.68222
1.68217
1.66854
-0.966804
-0.973186
-0.967133
-0.949861
-0.922142
-0.884459
-0.837156
-0.780519
-0.714804
-0.640233
-0.556993
-0.465221
-0.364997
-0.256344
-0.139232
-0.0135984
0.120616
0.263401
0.41456
0.573513
0.738963
0.908866
1.07996
1.24743
1.40481
1.54427
1.65782
1.73935
1.78715
1.80521
1.80158
1.78432
-1.10288
-1.10987
-1.10326
-1.0845
-1.05454
-1.014
-0.963318
-0.902871
-0.832986
-0.753943
-0.66596
-0.569181
-0.463658
-0.349345
-0.226092
-0.0936587
0.0482657
0.200005
0.361784
0.533558
0.714588
0.903188
1.09629
1.28877
1.47297
1.63879
1.77487
1.87158
1.92524
1.94114
1.93164
1.90891
-1.25507
-1.26275
-1.25542
-1.23484
-1.20221
-1.15832
-1.10377
-1.03904
-0.964578
-0.880749
-0.787835
-0.686012
-0.575329
-0.455694
-0.326857
-0.188407
-0.0397786
0.119713
0.290785
0.47404
0.669651
0.876629
1.09259
1.31267
1.52857
1.72789
1.89494
2.01442
2.07802
2.0912
2.07234
2.04076
-1.42526
-1.43371
-1.4254
-1.40254
-1.36663
-1.31872
-1.2596
-1.18996
-1.11037
-1.02133
-0.923234
-0.816314
-0.700659
-0.576168
-0.442532
-0.299218
-0.145445
0.0198034
0.197735
0.389649
0.596716
0.819325
1.05624
1.30395
1.55484
1.79534
2.00526
2.16093
2.24461
2.25754
2.2247
2.17789
-1.61579
-1.62509
-1.61543
-1.58958
-1.54952
-1.49663
-1.432
-1.35655
-1.27106
-1.17623
-1.07256
-0.960415
-0.83996
-0.711143
-0.573668
-0.426963
-0.270142
-0.10198
0.0790908
0.274941
0.487635
0.719099
0.970136
1.23986
1.52403
1.81117
2.0786
2.29254
2.41832
2.44253
2.3921
2.31868
-1.82965
-1.83987
-1.82826
-1.79839
-1.7529
-1.69367
-1.62218
-1.53968
-1.44724
-1.34575
-1.23593
-1.11827
-0.99309
-0.86044
-0.72014
-0.571712
-0.414349
-0.246865
-0.0676625
0.125301
0.334528
0.562978
0.8138
1.0902
1.39537
1.72646
2.06491
2.36867
2.57783
2.64512
2.58189
2.46453
-2.07075
-2.08195
-2.06743
-2.03198
-1.97918
-1.91164
-1.8314
-1.74014
-1.63927
-1.52995
-1.4131
-1.28941
-1.15935
-1.02319
-0.880944
-0.732419
-0.57714
-0.414343
-0.242952
-0.0615337
0.131862
0.340131
0.56792
0.822459
1.119
1.47422
1.88686
2.31679
2.67515
2.85386
2.80826
2.62873
-2.34443
-2.35658
-2.33761
-2.29414
-2.23123
-2.15256
-2.06094
-1.95858
-1.8473
-1.72854
-1.60342
-1.47282
-1.33743
-1.19772
-1.05406
-0.906688
-0.755763
-0.60142
-0.443849
-0.283347
-0.120118
0.046685
0.221281
0.414673
0.651613
0.984286
1.44974
2.03298
2.62721
3.03888
3.09833
2.85617
-2.65823
-2.67109
-2.64507
-2.58974
-2.51251
-2.41864
-2.31198
-2.19541
-2.07113
-1.94082
-1.80578
-1.66702
-1.52539
-1.38162
-1.23645
-1.09071
-0.945444
-0.802135
-0.662992
-0.531275
-0.411247
-0.306824
-0.217461
-0.130629
-0.0138222
0.21804
0.675819
1.40641
2.32356
3.14887
3.50056
3.25343
-3.02331
-3.03613
-2.99845
-2.925
-2.82701
-2.7121
-2.58544
-2.45058
-2.31004
-2.1656
-2.01857
-1.86999
-1.72076
-1.57181
-1.42425
-1.27951
-1.13966
-1.00778
-0.888579
-0.789131
-0.719265
-0.69024
-0.709274
-0.767627
-0.824032
-0.784481
-0.435899
0.377309
1.66401
3.12156
4.09208
4.02395
-3.45717
-3.46776
-3.40984
-3.30775
-3.17907
-3.03478
-2.88148
-2.72324
-2.56255
-2.40097
-2.23957
-2.07918
-1.9206
-1.76481
-1.61315
-1.46759
-1.33111
-1.20832
-1.10638
-1.03619
-1.01332
-1.05726
-1.18583
-1.4006
-1.6617
-1.86158
-1.74445
-0.980495
0.633236
2.92134
4.98916
5.50991
-3.98933
-3.99131
-3.89614
-3.74714
-3.57236
-3.38695
-3.19852
-3.01083
-2.82563
-2.64371
-2.46546
-2.29119
-2.12134
-1.95675
-1.79877
-1.64968
-1.51311
-1.39484
-1.30389
-1.25395
-1.26477
-1.36195
-1.57235
-1.9103
-2.3491
-2.77834
-2.95735
-2.39752
-0.603346
2.61824
6.38045
8.2574
-4.67448
-4.64814
-4.47962
-4.25116
-4.00658
-3.76422
-3.53046
-3.30675
-3.09273
-2.88752
-2.69025
-2.50033
-2.31758
-2.14242
-1.97606
-1.82081
-1.68062
-1.56188
-1.47462
-1.43384
-1.46076
-1.58281
-1.83034
-2.22499
-2.75473
-3.33099
-3.7263
-3.4374
-1.62728
2.51787
8.61882
13.1346
-5.62655
-5.50547
-5.18205
-4.81592
-4.46695
-4.14851
-3.85905
-3.59374
-3.34786
-3.11766
-2.90038
-2.69414
-2.4979
-2.31156
-2.13601
-1.97348
-1.82797
-1.7061
-1.61806
-1.5789
-1.60947
-1.73615
-1.98716
-2.38191
-2.90948
-3.49401
-3.94196
-3.73781
-1.79251
3.35006
12.4347
21.527
-7.11539
-6.65181
-5.98526
-5.38518
-4.89136
-4.48208
-4.13291
-3.82622
-3.55033
-3.29746
-3.06242
-2.84194
-2.63417
-2.43844
-2.25532
-2.08689
-1.9372
-1.81297
-1.72446
-1.68633
-1.71819
-1.84345
-2.08463
-2.45206
-2.92318
-3.41086
-3.71881
-3.23912
-0.629127
6.22649
19.3889
35.4891
-9.81658
-8.02667
-6.64289
-5.71486
-5.06994
-4.58861
-4.20362
-3.87817
-3.59183
-3.3328
-3.09398
-2.87118
-2.66206
-2.46578
-2.28291
-2.11565
-1.96832
-1.84796
-1.7649
-1.73337
-1.77133
-1.89833
-2.12937
-2.46199
-2.8532
-3.18152
-3.17712
-2.01861
2.01213
11.9066
32.2381
63.0053
-16.6388
-8.34122
-5.79292
-4.85504
-4.37585
-4.04505
-3.773
-3.53016
-3.30511
-3.09266
-2.89017
-2.69638
-2.511
-2.33466
-2.16903
-2.01723
-1.88437
-1.77808
-1.70899
-1.69102
-1.7407
-1.87401
-2.09891
-2.40015
-2.7107
-2.85734
-2.43163
-0.414493
5.24418
18.6147
49.2945
123.048
VECTORS velocity double
-1.82221e-05 1.8222e-05 0
-0.000158407 0.000121963 0
-0.000473935 0.000193565 0
-0.000895019 0.000227518 0
-0.00136053 0.000237995 0
-0.00183569 0.000237166 0
-0.0023044 0.000231537 0
-0.00275953 0.000223594 0
-0.00319701 0.000213891 0
-0.00361318 0.000202276 0
-0.00400387 0.000188415 0
-0.00436425 0.000171964 0
-0.00468882 0.000152611 0
-0.00497153 0.000130098 0
-0.00520588 0.000104249 0
-0.00538515 7.50213e-05 0
-0.00550272 4.25462e-05 0
-0.00555238 7.11386e-06 0
-0.00552833 -3.11672e-05 0
-0.00542539 -7.17745e-05 0
-0.00523983 -0.00011378 0
-0.00496993 -0.000156116 0
-0.00461625 -0.000197573 0
-0.00418188 -0.000236788 0
-0.00367292 -0.000272181 0
-0.00309902 -0.000301719 0
-0.00247499 -0.000322304 0
-0.00182407 -0.000328622 0
-0.0011838 -0.000311644 0
-0.000613909 -0.000258248 0
-0.000198994 -0.000156667 0
-2.11633e-05 -2.11634e-05 0
-0.000126984 0.000163428 0
-0.000580385 0.000570343 0
-0.00136352 0.000843851 0
-0.0023438 0.000978593 0
-0.00341452 0.00102316 0
-0.00450809 0.00102073 0
-0.00558738 0.000995966 0
-0.00663238 0.000959292 0
-0.00763043 0.000913728 0
-0.00857113 0.000859304 0
-0.00944416 0.000795113 0
-0.0102386 0.000720069 0
-0.0109427 0.000633153 0
-0.0115439 0.000533535 0
-0.0120295 0.000420692 0
-0.0123862 0.000294562 0
-0.0126013 0.0001557 0
-0.012663 5.28053e-06 0
-0.0125608 -0.00015554 0
-0.0122869 -0.000324229 0
-0.0118365 -0.000497303 0
-0.0112083 -0.000670665 0
-0.0104054 -0.000839597 0
-0.00943585 -0.000998714 0
-0.00831341 -0.00114166 0
-0.00705941 -0.00126014 0
-0.00570568 -0.00134163 0
-0.00430054 -0.00136536 0
-0.00291789 -0.00129782 0
-0.00166686 -0.001093 0
-0.000691954 -0.000711745 0
-0.000146772 -0.000189099 0
-0.000211584 0.000501996 0
-0.000901254 0.00137485 0
-0.00201468 0.00193591 0
-0.00336337 0.00221551 0
-0.00481673 0.00231033 0
-0.00629351 0.00230391 0
-0.00774706 0.00224563 0
-0.00915024 0.0021578 0
-0.0104849 0.0020479 0
-0.0117361 0.00191703 0
-0.0128897 0.001764 0
-0.0139311 0.00158707 0
-0.0148454 0.00138453 0
-0.015617 0.001155 0
-0.0162299 0.000897681 0
-0.0166683 0.000612659 0
-0.0169167 0.000301178 0
-0.0169611 -3.41569e-05 0
-0.0167898 -0.000389598 0
-0.0163945 -0.00075934 0
-0.0157708 -0.00113632 0
-0.0149185 -0.00151208 0
-0.0138428 -0.00187676 0
-0.012555 -0.00221898 0
-0.0110737 -0.00252515 0
-0.00942691 -0.00277745 0
-0.00765558 -0.00294937 0
-0.00581999 -0.00299835 0
-0.00400933 -0.00285813 0
-0.00235241 -0.00244063 0
-0.00102274 -0.00166869 0
-0.000232103 -0.000567974 0
-0.000262491 0.000976071 0
-0.00110125 0.0024292 0
-0.00242733 0.00332106 0
-0.00400842 0.00376015 0
-0.00569624 0.00390687 0
-0.00740256 0.00389046 0
-0.009077 0.00378708 0
-0.0106896 0.00363209 0
-0.0122195 0.00343821 0
-0.0136497 0.0032081 0
-0.0149639 0.00294068 0
-0.0161458 0.00263377 0
-0.0171788 0.00228514 0
-0.0180458 0.00189299 0
-0.0187296 0.00145638 0
-0.0192129 0.000975641 0
-0.0194791 0.000452891 0
-0.0195131 -0.000107495 0
-0.0193024 -0.000698368 0
-0.0188378 -0.00131039 0
-0.0181144 -0.00193238 0
-0.0171319 -0.00255079 0
-0.015896 -0.00314962 0
-0.0144197 -0.00371028 0
-0.0127244 -0.00421048 0
-0.0108422 -0.00462112 0
-0.00881953 -0.00489966 0
-0.00672373 -0.00497946 0
-0.00465274 -0.00475867 0
-0.00274775 -0.004102 0
-0.00120408 -0.00288067 0
-0.000275316 -0.00107539 0
-0.000290526 0.00152909 0
-0.00121716 0.00364158 0
-0.00267508 0.00489267 0
-0.00440223 0.00549677 0
-0.00623645 0.0056923 0
-0.0080845 0.0056594 0
-0.00989436 0.00550245 0
-0.0116352 0.00527013 0
-0.0132856 0.00498051 0
-0.0148276 0.00463794 0
-0.0162442 0.00424158 0
-0.0175183 0.00378893 0
-0.0186326 0.00327728 0
-0.0195691 0.00270445 0
-0.0203098 0.00206933 0
-0.0208363 0.00137248 0
-0.0211308 0.000616849 0
-0.0211769 -0.000191423 0
-0.0209601 -0.00104203 0
-0.0204691 -0.00192225 0
-0.0196966 -0.00281641 0
-0.0186407 -0.00370521 0
-0.0173061 -0.00456563 0
-0.015706 -0.00537067 0
-0.0138636 -0.00608789 0
-0.0118141 -0.00667533 0
-0.00960944 -0.00707279 0
-0.00732379 -0.00718779 0
-0.00506458 -0.00688055 0
-0.00298609 -0.0059636 0
-0.00130309 -0.00424574 0
-0.000295732 -0.00164644 0
-0.000307153 0.00212677 0
-0.00128935 0.00495273 0
-0.00283527 0.00658536 0
-0.0046632 0.00735915 0
-0.00660013 0.00760107 0
-0.00854858 0.00754711 0
-0.0104554 0.00733146 0
-0.0122899 0.0070164 0
-0.0140305 0.00662528 0
-0.0156595 0.00616411 0
-0.0171597 0.00563221 0
-0.018514 0.00502668 0
-0.0197044 0.00434425 0
-0.0207125 0.00358213 0
-0.021519 0.0027388 0
-0.0221042 0.00181473 0
-0.0224484 0.000813384 0
-0.0225326 -0.000257751 0
-0.0223391 -0.00138602 0
-0.0218528 -0.00255556 0
-0.0210624 -0.00374592 0
-0.0199627 -0.00493141 0
-0.0185558 -0.00608087 0
-0.016854 -0.00715731 0
-0.0148816 -0.00811615 0
-0.0126778 -0.00890025 0
-0.0103011 -0.00942929 0
-0.00783556 -0.00958248 0
-0.00540142 -0.00917921 0
-0.00316901 -0.00797584 0
-0.00137198 -0.00571354 0
-0.000307905 -0.00225008 0
-0.000319865 0.00275378 0
-0.00134556 0.0063336 0
-0.00296241 0.00836726 0
-0.0048739 0.00931668 0
-0.00689819 0.00960477 0
-0.00893396 0.00952763 0
-0.0109272 0.00925103 0
-0.0128472 0.00885128 0
-0.0146732 0.00835705 0
-0.0163878 0.00777587 0
-0.0179741 0.00710705 0
-0.0194151 0.00634709 0
-0.0206927 0.00549183 0
-0.0217875 0.00453747 0
-0.0226791 0.00348154 0
-0.0233457 0.0023238 0
-0.0237646 0.00106751 0
-0.0239131 -0.00027927 0
-0.0237686 -0.00170243 0
-0.0233108 -0.00318336 0
-0.0225225 -0.00469675 0
-0.021393 -0.00620981 0
-0.0199205 -0.00768183 0
-0.0181151 -0.00906362 0
-0.0160018 -0.0102955 0
-0.0136251 -0.0113015 0
-0.0110525 -0.0119773 0
-0.00838217 -0.0121703 0
-0.00575213 -0.0116556 0
-0.00335291 -0.0101311 0
-0.00143809 -0.00727014 0
-0.000318828 -0.00287681 0
-0.000332542 0.00340619 0
-0.001401 0.00777535 0
-0.00308732 0.0102287 0
-0.00508149 0.0113609 0
-0.00719349 0.0116968 0
-0.00931848 0.0115964 0
-0.0114016 0.0112586 0
-0.0134124 0.0107746 0
-0.015331 0.0101783 0
-0.0171405 0.00947871 0
-0.0188249 0.00867497 0
-0.0203674 0.00776264 0
-0.0217497 0.00673619 0
-0.022952 0.00559021 0
-0.0239521 0.00432047 0
-0.0247257 0.00292507 0
-0.0252465 0.00140596 0
-0.0254864 -0.00022938 0
-0.0254168 -0.00196632 0
-0.0250099 -0.00378428 0
-0.0242408 -0.00565326 0
-0.0230908 -0.00753273 0
-0.0215515 -0.00937067 0
-0.0196291 -0.0111027 0
-0.0173492 -0.0126495 0
-0.0147624 -0.0139111 0
-0.0119494 -0.0147533 0
-0.00902778 -0.0149862 0
-0.00616002 -0.0143375 0
-0.00356254 -0.0124459 0
-0.00151164 -0.00892104 0
-0.000330591 -0.00352623 0
-0.000346874 0.00408561 0
-0.00146269 0.00928021 0
-0.00322492 0.0121724 0
-0.00530907 0.0134955 0
-0.00751683 0.013882 0
-0.00973985 0.0137592 0
-0.0119224 0.0133614 0
-0.0140347 0.0127949 0
-0.0160576 0.0120993 0
-0.0179754 0.011285 0
-0.019773 0.0103507 0
-0.0214344 0.00929074 0
-0.0229416 0.00809763 0
-0.0242741 0.00676357 0
-0.0254084 0.00528151 0
-0.0263174 0.00364661 0
-0.0269702 0.00185797 0
-0.0273326 -7.90802e-05 0
-0.027368 -0.00215072 0
-0.0270392 -0.00433566 0
-0.0263102 -0.00659997 0
-0.0251513 -0.00889491 0
-0.0235439 -0.0111552 0
-0.0214875 -0.013297 0
-0.0190069 -0.0152156 0
-0.0161603 -0.0167785 0
-0.013046 -0.0178132 0
-0.00980904 -0.0180848 0
-0.00664551 -0.0172701 0
-0.00380603 -0.0149503 0
-0.00159387 -0.0106798 0
-0.000342808 -0.00419963 0
-0.000363487 0.00479597 0
-0.00153348 0.0108557 0
-0.00338154 0.0142072 0
-0.00556666 0.01573 0
-0.00788146 0.0161701 0
-0.0102139 0.0160265 0
-0.0125076 0.0155704 0
-0.0147333 0.014924 0
-0.0168732 0.014133 0
-0.0189132 0.0132092 0
-0.0208397 0.0121507 0
-0.0226379 0.0109503 0
-0.0242905 0.00959796 0
-0.0257774 0.00808259 0
-0.0270736 0.00639306 0
-0.0281495 0.00451989 0
-0.0289694 0.00245741 0
-0.0294921 0.000206528 0
-0.0296711 -0.00222187 0
-0.0294567 -0.00480771 0
-0.0287988 -0.00751482 0
-0.0276513 -0.0102864 0
-0.0259805 -0.0130419 0
-0.0237742 -0.015673 0
-0.0210539 -0.0180406 0
-0.0178859 -0.0199682 0
-0.0143923 -0.0212314 0
-0.010756 -0.0215398 0
-0.00722087 -0.0205139 0
-0.00408394 -0.0176829 0
-0.00168138 -0.0125618 0
-0.000353777 -0.00489622 0
-0.000382605 0.00554206 0
-0.00161448 0.0125114 0
-0.00355973 0.0163447 0
-0.00585827 0.0180761 0
-0.00829246 0.0185729 0
-0.0107463 0.0184099 0
-0.0131626 0.017897 0
-0.0155134 0.0171738 0
-0.0177824 0.0162921 0
-0.0199575 0.0152652 0
-0.0220273 0.014091 0
-0.0239792 0.01276 0
-0.0257978 0.0112595 0
-0.0274636 0.00957375 0
-0.0289518 0.0076863 0
-0.0302303 0.00558102 0
-0.031259 0.00324488 0
-0.0319886 0.00067138 0
-0.0323615 -0.00213492 0
-0.0323124 -0.00515808 0
-0.0317719 -0.00836294 0
-0.0306715 -0.0116861 0
-0.0289545 -0.01503 0
-0.0265896 -0.018256 0
-0.0235888 -0.0211788 0
-0.020026 -0.0235607 0
-0.0160534 -0.0251052 0
-0.0119073 -0.0254483 0
-0.00789985 -0.0241479 0
-0.00439413 -0.0206915 0
-0.00176787 -0.014582 0
-0.000360741 -0.00561073 0
-0.000404361 0.00632903 0
-0.00170632 0.0142583 0
-0.00376086 0.0185976 0
-0.00618581 0.0205467 0
-0.00875188 0.0211026 0
-0.0113386 0.0209207 0
-0.0138884 0.0203524 0
-0.0163742 0.0195551 0
-0.0187823 0.0185878 0
-0.0211033 0.0174656 0
-0.0233289 0.016186 0
-0.0254497 0.0147377 0
-0.0274534 0.0131041 0
-0.029323 0.0112645 0
-0.0310347 0.00919537 0
-0.0325558 0.00687153 0
-0.0338422 0.00426949 0
-0.034837 0.00137127 0
-0.0354694 -0.00182957 0
-0.0356559 -0.00532603 0
-0.035302 -0.0090894 0
-0.0343087 -0.0130534 0
-0.0325852 -0.0171032 0
-0.0300691 -0.0210638 0
-0.0267522 -0.0246887 0
-0.0227112 -0.0276545 0
-0.0181339 -0.0295614 0
-0.0133298 -0.0299425 0
-0.0087107 -0.0282803 0
-0.00473767 -0.0240379 0
-0.00184552 -0.0167541 0
-0.000359936 -0.00633141 0
-0.000428954 0.00716234 0
-0.0018098 0.0161078 0
-0.00398642 0.0209793 0
-0.00655115 0.0231547 0
-0.00926138 0.0237709 0
-0.0119917 0.0235694 0
-0.0146839 0.0229457 0
-0.0173129 0.0220767 0
-0.0198675 0.0210289 0
-0.0223421 0.0198201 0
-0.0247326 0.0184477 0
-0.0270343 0.0168985 0
-0.0292397 0.0151524 0
-0.0313364 0.0131825 0
-0.0333039 0.0109567 0
-0.035111 0.00843842 0
-0.0367119 0.00558994 0
-0.0380429 0.00237659 0
-0.0390197 -0.00122569 0
-0.0395375 -0.00522562 0
-0.0394715 -0.00960962 0
-0.0386821 -0.0143159 0
-0.0370304 -0.0192159 0
-0.0344045 -0.0240931 0
-0.0307578 -0.0286229 0
-0.0261561 -0.032363 0
-0.0208223 -0.0347638 0
-0.0151602 -0.0352063 0
-0.00972663 -0.0330691 0
-0.00513517 -0.0278135 0
-0.00191038 -0.0190954 0
-0.000347343 -0.00703869 0
-0.00045675 0.00804805 0
-0.00192625 0.0180724 0
-0.00423884 0.0235039 0
-0.00695729 0.0259133 0
-0.00982376 0.026589 0
-0.0127072 0.0263651 0
-0.0155492 0.0256842 0
-0.0183264 0.0247444 0
-0.0210313 0.0236207 0
-0.0236628 0.0223344 0
-0.0262227 0.0208837 0
-0.0287124 0.019254 0
-0.0311316 0.0174215 0
-0.033475 0.0153533 0
-0.0357289 0.0130073 0
-0.0378671 0.0103332 0
-0.0398457 0.00727471 0
-0.0415973 0.00377439 0
-0.0430255 -0.000218534 0
-0.0440029 -0.00473752 0
-0.0443702 -0.00979641 0
-0.0439374 -0.0153513 0
-0.0425003 -0.0212693 0
-0.0398734 -0.0272926 0
-0.035941 -0.0330024 0
-0.0307278 -0.0377985 0
-0.0244742 -0.0409156 0
-0.0176906 -0.0415002 0
-0.011136 -0.0387634 0
-0.0056692 -0.0321775 0
-0.00197892 -0.0216465 0
-0.000321778 -0.00770781 0
-0.000488371 0.00899317 0
-0.00205792 0.0201664 0
-0.00452214 0.0261868 0
-0.00740932 0.0288361 0
-0.0104441 0.0295675 0
-0.0134892 0.0293152 0
-0.0164857 0.0285726 0
-0.0194128 0.0275604 0
-0.0222672 0.0263639 0
-0.0250536 0.0250091 0
-0.0277807 0.0234959 0
-0.0304585 0.0218094 0
-0.0330963 0.0199232 0
-0.0356993 0.0177981 0
-0.0382649 0.015382 0
-0.0407771 0.0126089 0
-0.0431997 0.00940019 0
-0.0454678 0.00566855 0
-0.0474785 0.00132624 0
-0.049084 -0.00369931 0
-0.0500886 -0.00946279 0
-0.0502464 -0.0159599 0
-0.0492713 -0.0230728 0
-0.0468734 -0.030514 0
-0.042822 -0.0377647 0
-0.0370426 -0.0440289 0
-0.0297395 -0.0482418 0
-0.0215106 -0.0491865 0
-0.0133723 -0.04577 0
-0.00657225 -0.0374377 0
-0.00212619 -0.0245226 0
-0.000292702 -0.00832229 0
-0.000524821 0.0100064 0
-0.00220841 0.0224063 0
-0.00484273 0.0290454 0
-0.00791544 0.0319374 0
-0.0111309 0.0327164 0
-0.0143449 0.0324254 0
-0.0174981 0.031612 0
-0.0205726 0.0305225 0
-0.0235701 0.0292538 0
-0.0265023 0.0278379 0
-0.0293863 0.0262782 0
-0.0322427 0.0245613 0
-0.0350931 0.0226595 0
-0.0379575 0.0205291 0
-0.0408495 0.0181085 0
-0.0437705 0.0153156 0
-0.0467009 0.0120465 0
-0.0495886 0.00817793 0
-0.0523351 0.00357409 0
-0.0547812 -0.00189555 0
-0.0567013 -0.0083419 0
-0.0577947 -0.0158296 0
-0.0576824 -0.0242904 0
-0.0559359 -0.0334409 0
-0.0521439 -0.0426812 0
-0.0460367 -0.0509991 0
-0.0376728 -0.0569387 0
-0.027657 -0.0587343 0
-0.0172795 -0.0547379 0
-0.00836003 -0.0441893 0
-0.00255114 -0.028026 0
-0.000294283 -0.00890928 0
-0.000567659 0.0110988 0
-0.00238322 0.024813 0
-0.00521042 0.0321002 0
-0.00848832 0.0352331 0
-0.0118979 0.0360457 0
-0.0152869 0.0356991 0
-0.0185958 0.0348004 0
-0.0218104 0.0336233 0
-0.0249381 0.0322784 0
-0.0279984 0.0308058 0
-0.0310185 0.0292144 0
-0.0340314 0.0274944 0
-0.0370741 0.0256195 0
-0.0401851 0.0235444 0
-0.0434007 0.0212008 0
-0.0467485 0.0184921 0
-0.0502377 0.0152896 0
-0.0538447 0.0114295 0
-0.0574942 0.00671842 0
-0.0610367 0.000948782 0
-0.0642321 -0.00607079 0
-0.0667366 -0.0145028 0
-0.0680782 -0.0243879 0
-0.0676525 -0.0355157 0
-0.0647829 -0.0472679 0
-0.0588698 -0.0584327 0
-0.0496585 -0.0670802 0
-0.0376004 -0.0706667 0
-0.0241831 -0.0666004 0
-0.0119462 -0.0534832 0
-0.00365211 -0.0328351 0
-0.000402781 -0.00960634 0
-0.000619249 0.0122857 0
-0.00259062 0.027413 0
-0.0056398 0.0353766 0
-0.00914681 0.0387417 0
-0.0127652 0.0395651 0
-0.0163343 0.0391378 0
-0.0197947 0.038131 0
-0.0231365 0.0368489 0
-0.0263738 0.0354178 0
-0.0295349 0.0338878 0
-0.032658 0.0322756 0
-0.0357901 0.0305781 0
-0.0389858 0.0287741 0
-0.0423062 0.0268212 0
-0.0458163 0.0246497 0
-0.0495799 0.0221546 0
-0.0536499 0.0191863 0
-0.058053 0.0155428 0
-0.0627658 0.0109674 0
-0.0676834 0.00515991 0
-0.0725791 -0.00219078 0
-0.077084 -0.0113734 0
-0.080636 -0.0226238 0
-0.0824188 -0.0359226 0
-0.0813969 -0.0507524 0
-0.0764926 -0.0657656 0
-0.0669483 -0.078503 0
-0.0528404 -0.0854099 0
-0.0356447 -0.0824702 0
-0.0185926 -0.0669023 0
-0.00606008 -0.0402426 0
-0.000749541 -0.0107587 0
-0.000683142 0.0135881 0
-0.00284286 0.0302417 0
-0.00615225 0.0389064 0
-0.00991826 0.0424848 0
-0.0137626 0.0432848 0
-0.0175158 0.0427403 0
-0.0211194 0.0415926 0
-0.0245691 0.0401788 0
-0.0278868 0.0386429 0
-0.0311104 0.0370473 0
-0.0342898 0.0354187 0
-0.0374864 0.0337638 0
-0.0407736 0.0320714 0
-0.0442374 0.0303082 0
-0.0479766 0.0284121 0
-0.0521005 0.0262798 0
-0.0567223 0.023753 0
-0.0619443 0.0206013 0
-0.0678312 0.0165087 0
-0.0743655 0.0110706 0
-0.0813841 0.00381291 0
-0.0884984 -0.00575788 0
-0.0950391 -0.0181467 0
-0.0999586 -0.0336973 0
-0.101795 -0.0521629 0
-0.0988907 -0.072164 0
-0.0898355 -0.0907042 0
-0.0741025 -0.10305 0
-0.0528169 -0.103312 0
-0.0295711 -0.0863588 0
-0.0105751 -0.0523146 0
-0.00153204 -0.0130402 0
-0.000764677 0.015036 0
-0.00315805 0.033347 0
-0.00677874 0.0427312 0
-0.0108417 0.046489 0
-0.014932 0.0472153 0
-0.0188715 0.0465025 0
-0.0226054 0.0451679 0
-0.0261366 0.0435843 0
-0.0294962 0.0419148 0
-0.0327325 0.0402352 0
-0.035907 0.0385845 0
-0.0390949 0.0369824 0
-0.0423873 0.0354324 0
-0.0458948 0.0339186 0
-0.0497516 0.0323977 0
-0.0541182 0.0307847 0
-0.0591811 0.0289327 0
-0.065142 0.0266044 0
-0.0721889 0.0234394 0
-0.0804367 0.0189219 0
-0.0898233 0.0123668 0
-0.0999677 0.00294691 0
-0.11005 -0.0102282 0
-0.118767 -0.0279798 0
-0.124274 -0.0505367 0
-0.124344 -0.0766245 0
-0.116872 -0.102772 0
-0.100536 -0.123051 0
-0.0756878 -0.129444 0
-0.0456327 -0.113527 0
-0.0180296 -0.0717454 0
-0.00305492 -0.0176272 0
-0.00087195 0.0166726 0
-0.00356303 0.0367948 0
-0.00756409 0.0469052 0
-0.0119724 0.0507864 0
-0.0163312 0.0513668 0
-0.0204567 0.0504159 0
-0.0243012 0.0488329 0
-0.0278787 0.047028 0
-0.0312318 0.0451839 0
-0.0344195 0.0433902 0
-0.0375141 0.0416987 0
-0.0406022 0.0401442 0
-0.0437889 0.0387497 0
-0.0472048 0.0375246 0
-0.0510145 0.0364581 0
-0.0554272 0.0355036 0
-0.0607036 0.0345531 0
-0.0671532 0.0333944 0
-0.0751055 0.0316486 0
-0.0848333 0.0286883 0
-0.0964078 0.0235616 0
-0.109491 0.0149801 0
-0.123136 0.00146575 0
-0.135772 -0.0183206 0
-0.145304 -0.0451576 0
-0.149145 -0.078092 0
-0.144573 -0.113349 0
-0.129361 -0.14402 0
-0.102639 -0.160045 0
-0.0665548 -0.149066 0
-0.0291447 -0.101219 0
-0.00579531 -0.0264774 0
-0.0010175 0.018562 0
-0.0040982 0.0406771 0
-0.00857333 0.051499 0
-0.0133876 0.0554152 0
-0.0180387 0.0557479 0
-0.0223437 0.0544652 0
-0.0262696 0.052554 0
-0.0298471 0.0504618 0
-0.0331337 0.0483897 0
-0.0362003 0.0464388 0
-0.0391282 0.0446726 0
-0.0420109 0.0431411 0
-0.0449602 0.0418889 0
-0.0481163 0.0409573 0
-0.0516609 0.0403798 0
-0.0558344 0.0401681 0
-0.0609512 0.0402819 0
-0.0674055 0.0405695 0
-0.0756461 0.0406663 0
-0.0860929 0.0398451 0
-0.0989688 0.0368552 0
-0.114057 0.029858 0
-0.130452 0.0166281 0
-0.146441 -0.00485815 0
-0.159806 -0.0357235 0
-0.167916 -0.0755747 0
-0.167686 -0.120669 0
-0.155997 -0.163601 0
-0.13038 -0.192803 0
-0.0908555 -0.191918 0
-0.0442331 -0.142401 0
-0.010303 -0.0425757 0
-0.00122128 0.0208008 0
-0.00482539 0.0451232 0
-0.00990144 0.0566042 0
-0.0151946 0.0604175 0
-0.020158 0.0603601 0
-0.0246231 0.0586231 0
-0.0285849 0.0562839 0
-0.0321001 0.0538247 0
-0.0352463 0.0514597 0
-0.0381078 0.0492969 0
-0.0407723 0.0474069 0
-0.0433342 0.0458514 0
-0.0459015 0.0446952 0
-0.0486076 0.044013 0
-0.0516276 0.0438887 0
-0.055199 0.0444041 0
-0.0596423 0.0456061 0
-0.0653735 0.0474308 0
-0.0728886 0.0495607 0
-0.0826953 0.0512042 0
-0.095168 0.0508449 0
-0.110327 0.0461153 0
-0.127584 0.0340235 0
-0.145543 0.0116939 0
-0.161994 -0.0224591 0
-0.174415 -0.068308 0
-0.179846 -0.122735 0
-0.174489 -0.178581 0
-0.154083 -0.223845 0
-0.115585 -0.238898 0
-0.0626085 -0.195019 0
-0.0168084 -0.0696871 0
-0.0015162 0.0235383 0
-0.00584156 0.0503152 0
-0.0116878 0.0623345 0
-0.0175397 0.0658324 0
-0.0228186 0.0651876 0
-0.027397 0.062839 0
-0.0313198 0.0599526 0
-0.0346843 0.0570357 0
-0.0375955 0.054306 0
-0.0401526 0.0518691 0
-0.0424472 0.049794 0
-0.0445673 0.0481463 0
-0.0466042 0.0470045 0
-0.0486649 0.0464705 0
-0.0508875 0.0466738 0
-0.0534606 0.0477635 0
-0.0566447 0.0498742 0
-0.0607885 0.0530377 0
-0.0663294 0.0570097 0
-0.0737651 0.0609975 0
-0.0835811 0.0633403 0
-0.0961178 0.0613156 0
-0.111365 0.0513272 0
-0.128686 0.0296708 0
-0.146542 -0.00612939 0
-0.162745 -0.0560139 0
-0.174627 -0.117716 0
-0.178277 -0.185307 0
-0.167784 -0.248019 0
-0.136324 -0.284682 0
-0.0821714 -0.256365 0
-0.0249086 -0.111404 0
-0.00195873 0.0270132 0
-0.00730211 0.056509 0
-0.0141356 0.0688203 0
-0.0206129 0.0716757 0
-0.0261633 0.0701736 0
-0.0307503 0.0670184 0
-0.0345036 0.0634494 0
-0.0375804 0.0599802 0
-0.0401225 0.0568147 0
-0.0422463 0.0540412 0
-0.0440444 0.0517146 0
-0.0455911 0.0498923 0
-0.0469495 0.0486538 0
-0.0481814 0.0481138 0
-0.0493588 0.0484304 0
-0.0505786 0.0497998 0
-0.0519796 0.052423 0
-0.0537601 0.0564132 0
-0.0561976 0.0616126 0
-0.0596695 0.0673022 0
-0.0646712 0.0718533 0
-0.0718125 0.0724806 0
-0.0817415 0.0653384 0
-0.0949221 0.0461617 0
-0.111198 0.0115107 0
-0.129278 -0.0393705 0
-0.147181 -0.104574 0
-0.161521 -0.180459 0
-0.165248 -0.259633 0
-0.147582 -0.322192 0
-0.0995283 -0.321061 0
-0.0335933 -0.169906 0
-0.00264935 0.0316213 0
-0.00945975 0.0640547 0
-0.0175315 0.0761799 0
-0.0246297 0.0778917 0
-0.030292 0.0751703 0
-0.0346603 0.0709769 0
-0.0380004 0.0665842 0
-0.0405541 0.062476 0
-0.0425087 0.0588156 0
-0.043999 0.0556544 0
-0.0451163 0.0530169 0
-0.0459167 0.0509372 0
-0.0464283 0.049479 0
-0.0466575 0.0487496 0
-0.0465947 0.0489092 0
-0.0462221 0.0501683 0
-0.0455238 0.0527573 0
-0.0445051 0.0568408 0
-0.0432275 0.062345 0
-0.0418681 0.0686823 0
-0.0408078 0.0744145 0
-0.0407283 0.0769813 0
-0.0426809 0.0727193 0
-0.0480797 0.0573602 0
-0.0584922 0.0270002 0
-0.0747948 -0.020477 0
-0.0965215 -0.0838379 0
-0.121103 -0.162275 0
-0.141369 -0.253825 0
-0.143497 -0.343538 0
-0.110253 -0.381014 0
-0.0413207 -0.24482 0
-0.00377162 0.0380423 0
-0.0127204 0.0733929 0
-0.0222321 0.084425 0
-0.029725 0.0842377 0
-0.03507 0.0798317 0
-0.0387335 0.0743474 0
-0.0411839 0.0690042 0
-0.0427707 0.0641965 0
-0.0437312 0.0600102 0
-0.0442172 0.0564361 0
-0.0443169 0.0534521 0
-0.0440687 0.0510541 0
-0.0434682 0.0492733 0
-0.0424722 0.0481885 0
-0.0409981 0.0479335 0
-0.0389232 0.0486965 0
-0.0360887 0.0506962 0
-0.0323183 0.0541128 0
-0.0274647 0.0589418 0
-0.0214941 0.0647555 0
-0.0146131 0.0703999 0
-0.00740966 0.073713 0
-0.000977857 0.0715084 0
0.0029473 0.0600448 0
0.00183054 0.0358448 0
-0.00781152 -0.00337692 0