# vtk DataFile Version 2.0
Lid-driven cavity
ASCII
DATASET STRUCTURED_POINTS
DIMENSIONS 128 128 1
ORIGIN 0.00390625 0.00390625 0
SPACING 0.0078125 0.0078125 1
POINT_DATA 16384
SCALARS pressure double 1
LOOKUP_TABLE default
2.85283
2.8506
2.84436
2.83534
2.82486
2.814
2.80359
2.79427
2.78651
2.78065
2.77695
2.77558
2.77667
2.78032
2.78656
2.79544
2.80696
2.82112
2.83791
2.8573
2.87929
2.90383
2.9309
2.96048
2.99252
3.027
3.0639
3.10317
3.1448
3.18875
3.23501
3.28353
3.33431
3.38731
3.4425
3.49988
3.5594
3.62104
3.68478
3.7506
3.81846
3.88834
3.96021
4.03403
4.10978
4.18742
4.2669
4.34821
4.43128
4.51609
4.60258
4.6907
4.7804
4.87164
4.96434
5.05845
5.1539
5.25063
5.34856
5.44763
5.54774
5.64883
5.75079
5.85355
5.95701
6.06108
6.16565
6.27062
6.37589
6.48135
6.58688
6.69238
6.79771
6.90276
7.0074
7.11151
7.21496
7.31762
7.41935
7.52003
7.61952
7.71768
7.81439
7.9095
8.0029
8.09445
8.18402
8.27149
8.35673
8.43962
8.52006
8.59792
8.67311
8.74551
8.81505
8.88162
8.94514
9.00554
9.06275
9.1167
9.16734
9.21462
9.25851
9.29898
9.336
9.36956
9.39967
9.42632
9.44955
9.46937
9.48584
9.499
9.50894
9.51573
9.5195
9.52036
9.51849
9.51406
9.50733
9.49857
9.48815
9.4765
9.46418
9.45189
9.44051
9.43111
9.42494
9.42302
2.85504
2.85282
2.84752
2.84012
2.83156
2.82269
2.8142
2.80666
2.8005
2.79605
2.79358
2.79328
2.79528
2.79968
2.80656
2.81595
2.82788
2.84236
2.85938
2.87895
2.90104
2.92563
2.95271
2.98225
3.01422
3.0486
3.08537
3.12448
3.16593
3.20968
3.25572
3.30401
3.35453
3.40726
3.46217
3.51924
3.57844
3.63976
3.70315
3.76861
3.83609
3.90558
3.97704
4.05044
4.12574
4.20292
4.28193
4.36274
4.44531
4.52958
4.61552
4.70307
4.79218
4.8828
4.97488
5.06834
5.16312
5.25916
5.35638
5.45471
5.55407
5.65439
5.75556
5.85751
5.96015
6.06337
6.16708
6.27118
6.37556
6.48011
6.58472
6.68928
6.79367
6.89777
7.00146
7.10461
7.20709
7.30878
7.40955
7.50926
7.60778
7.705
7.80076
7.89495
7.98743
8.07807
8.16676
8.25337
8.33778
8.41987
8.49953
8.57666
8.65114
8.72288
8.79179
8.85778
8.92078
8.9807
9.03748
9.09106
9.14139
9.18843
9.23214
9.2725
9.30949
9.3431
9.37333
9.4002
9.42373
9.44395
9.46093
9.47471
9.48538
9.49303
9.49778
9.49978
9.49918
9.49618
9.49104
9.48403
9.4755
9.46588
9.45568
9.44551
9.43611
9.42831
9.42302
9.42111
2.86129
2.8581
2.8528
2.84606
2.83858
2.831
2.82387
2.81766
2.81276
2.80948
2.80805
2.80867
2.81148
2.81657
2.82403
2.83391
2.84623
2.86103
2.8783
2.89805
2.92027
2.94494
2.97205
3.00157
3.0335
3.0678
3.10446
3.14344
3.18474
3.22832
3.27415
3.32223
3.37252
3.425
3.47965
3.53645
3.59536
3.65637
3.71945
3.78457
3.85171
3.92083
3.99191
4.06492
4.13982
4.21657
4.29515
4.37551
4.4576
4.54139
4.62682
4.71386
4.80243
4.8925
4.98401
5.07688
5.17106
5.26648
5.36306
5.46074
5.55944
5.65906
5.75954
5.86077
5.96267
6.06515
6.1681
6.27143
6.37502
6.47878
6.58258
6.68633
6.7899
6.89317
6.99603
7.09834
7.19999
7.30084
7.40076
7.49964
7.59734
7.69373
7.78868
7.88206
7.97375
8.06362
8.15155
8.23742
8.32111
8.40251
8.48151
8.55799
8.63187
8.70304
8.77141
8.8369
8.89944
8.95895
9.01536
9.06863
9.11869
9.16552
9.20908
9.24935
9.28631
9.31996
9.35031
9.37737
9.40117
9.42176
9.43918
9.4535
9.46481
9.4732
9.47881
9.48177
9.48224
9.48044
9.4766
9.47099
9.46394
9.45584
9.44715
9.43837
9.4301
9.423
9.41772
9.41495
2.87034
2.86551
2.8595
2.85274
2.8457
2.83885
2.8326
2.82734
2.82339
2.82102
2.82045
2.82185
2.82535
2.83105
2.83904
2.84937
2.86207
2.87718
2.8947
2.91464
2.93699
2.96175
2.98891
3.01845
3.05035
3.08459
3.12117
3.16004
3.20121
3.24463
3.2903
3.33818
3.38827
3.44053
3.49494
3.55148
3.61013
3.67086
3.73365
3.79846
3.86528
3.93407
4.00481
4.07746
4.15199
4.22836
4.30654
4.38648
4.46815
4.5515
4.63648
4.72305
4.81115
4.90072
4.99172
5.08407
5.17771
5.27258
5.36861
5.46571
5.56382
5.66284
5.7627
5.86331
5.96458
6.0664
6.1687
6.27135
6.37427
6.47734
6.58046
6.68351
6.78637
6.88894
6.99108
7.09268
7.19361
7.29375
7.39297
7.49113
7.58813
7.68382
7.77808
7.87079
7.96181
8.05103
8.13832
8.22356
8.30665
8.38746
8.46589
8.54184
8.6152
8.68589
8.75381
8.81888
8.88103
8.94019
8.99629
9.04929
9.09913
9.14579
9.18922
9.22941
9.26635
9.30004
9.33049
9.35772
9.38175
9.40265
9.42045
9.43523
9.44709
9.45611
9.46243
9.46619
9.46755
9.46671
9.4639
9.45937
9.45342
9.4464
9.43868
9.43071
9.42293
9.41585
9.40993
9.4056
2.88089
2.87409
2.86696
2.85971
2.85264
2.84607
2.84032
2.83568
2.83241
2.83074
2.83084
2.83287
2.83695
2.84319
2.85164
2.86238
2.87543
2.89083
2.90859
2.92872
2.95121
2.97607
3.00329
3.03285
3.06475
3.09896
3.13547
3.17426
3.21531
3.2586
3.30412
3.35184
3.40174
3.4538
3.508
3.56431
3.62272
3.6832
3.74572
3.81026
3.87679
3.94528
4.0157
4.08803
4.16222
4.23825
4.31607
4.39564
4.47693
4.55989
4.64447
4.73063
4.8183
4.90744
4.99799
5.08988
5.18306
5.27745
5.37299
5.46959
5.56719
5.6657
5.76503
5.86511
5.96583
6.0671
6.16884
6.27093
6.37327
6.47577
6.5783
6.68076
6.78304
6.88502
6.98657
7.08758
7.18792
7.28747
7.3861
7.48368
7.5801
7.67522
7.76891
7.86106
7.95153
8.04021
8.12698
8.21172
8.2943
8.37464
8.45261
8.52811
8.60105
8.67134
8.73889
8.80361
8.86544
8.92431
8.98016
9.03293
9.08259
9.1291
9.17243
9.21256
9.24948
9.28321
9.31374
9.34111
9.36534
9.38649
9.40461
9.41978
9.43209
9.44163
9.44853
9.45293
9.45499
9.4549
9.45287
9.44913
9.44395
9.43762
9.43047
9.42283
9.41508
9.40754
9.40053
9.3943
2.89188
2.88302
2.87452
2.86648
2.85906
2.85246
2.84691
2.84262
2.83979
2.83861
2.83922
2.84175
2.84632
2.853
2.86186
2.87296
2.88633
2.90199
2.91998
2.94029
2.96292
2.98789
3.01518
3.04478
3.07668
3.11087
3.14733
3.18605
3.22701
3.2702
3.31559
3.36316
3.4129
3.46478
3.51879
3.57491
3.6331
3.69335
3.75563
3.81992
3.88619
3.95441
4.02456
4.0966
4.17049
4.24621
4.32371
4.40296
4.48392
4.56653
4.65076
4.73655
4.82386
4.91262
5.00279
5.09429
5.18707
5.28105
5.37617
5.47236
5.56953
5.6676
5.76649
5.86612
5.9664
6.06722
6.16849
6.27012
6.37199
6.47402
6.57608
6.67807
6.77988
6.88138
6.98246
7.08299
7.18286
7.28194
7.3801
7.47723
7.57319
7.66785
7.7611
7.85281
7.94285
8.03111
8.11746
8.20179
8.28399
8.36395
8.44155
8.51671
8.58932
8.65929
8.72654
8.79099
8.85256
8.9112
8.96684
9.01944
9.06895
9.11534
9.15858
9.19866
9.23558
9.26933
9.29994
9.32742
9.35182
9.37317
9.39155
9.40703
9.41969
9.42964
9.437
9.4419
9.44449
9.44495
9.44348
9.44027
9.43558
9.42963
9.42271
9.41508
9.40699
9.39869
9.39037
9.38211
2.90247
2.89158
2.88163
2.87262
2.86463
2.85777
2.85219
2.84804
2.84547
2.84461
2.84558
2.8485
2.85344
2.86049
2.86969
2.8811
2.89475
2.91066
2.92885
2.94934
2.97211
2.99718
3.02455
3.05419
3.08611
3.12029
3.15673
3.1954
3.23628
3.27938
3.32466
3.3721
3.4217
3.47344
3.52728
3.58321
3.64122
3.70127
3.76334
3.82741
3.89345
3.96144
4.03134
4.10312
4.17675
4.2522
4.32943
4.4084
4.48907
4.57139
4.65531
4.7408
4.82779
4.91624
5.00608
5.09726
5.1897
5.28335
5.37813
5.47397
5.57079
5.66852
5.76706
5.86633
5.96624
6.06671
6.16762
6.26888
6.37039
6.47205
6.57375
6.67538
6.77682
6.87796
6.97869
7.07887
7.17838
7.27711
7.37493
7.47171
7.56733
7.66166
7.75458
7.84596
7.93568
8.02363
8.10968
8.19371
8.27562
8.3553
8.43263
8.50753
8.57989
8.64963
8.71666
8.7809
8.84228
8.90075
8.95624
9.0087
9.05809
9.10439
9.14757
9.18762
9.22452
9.2583
9.28896
9.31653
9.34105
9.36257
9.38115
9.39687
9.40981
9.42007
9.42776
9.43302
9.43599
9.43684
9.43572
9.43284
9.42839
9.42259
9.41564
9.40775
9.39911
9.38987
9.38013
9.36989
2.912
2.89919
2.88778
2.87773
2.86903
2.86176
2.85598
2.85181
2.84933
2.84866
2.84988
2.85307
2.85831
2.86564
2.87513
2.8868
2.90069
2.91682
2.9352
2.95584
2.97875
3.00393
3.03137
3.06106
3.09301
3.1272
3.16361
3.20224
3.24307
3.28609
3.33128
3.37863
3.42811
3.47971
3.53341
3.58919
3.64703
3.70691
3.7688
3.83268
3.89852
3.9663
4.03599
4.10756
4.18097
4.25619
4.33318
4.41191
4.49234
4.57441
4.65809
4.74333
4.83007
4.91825
5.00783
5.09875
5.19093
5.28431
5.37882
5.4744
5.57095
5.66841
5.76668
5.86569
5.96534
6.06553
6.16618
6.26718
6.36843
6.46983
6.57127
6.67265
6.77384
6.87473
6.97521
7.07515
7.17443
7.27292
7.37051
7.46706
7.56246
7.65657
7.74927
7.84044
7.92996
8.0177
8.10355
8.18739
8.26911
8.3486
8.42576
8.50049
8.57268
8.64226
8.70914
8.77324
8.8345
8.89285
8.94823
9.00059
9.04991
9.09615
9.13928
9.1793
9.21621
9.25
9.2807
9.30834
9.33295
9.35459
9.37332
9.3892
9.40234
9.41281
9.42074
9.42625
9.42946
9.43053
9.42962
9.42688
9.42249
9.41663
9.40946
9.40114
9.3918
9.38154
9.37037
9.35827
2.91999
2.90539
2.89258
2.88145
2.87198
2.86419
2.8581
2.85378
2.85129
2.85069
2.85205
2.85543
2.86087
2.86843
2.87814
2.89003
2.90413
2.92044
2.93899
2.95978
2.98281
3.00809
3.03561
3.06536
3.09734
3.13154
3.16795
3.20655
3.24734
3.2903
3.33542
3.38268
3.43206
3.48355
3.53714
3.59279
3.65049
3.71022
3.77196
3.83568
3.90135
3.96896
4.03848
4.10986
4.18309
4.25812
4.33493
4.41347
4.49369
4.57557
4.65905
4.74409
4.83063
4.91862
5.008
5.09872
5.19071
5.28389
5.37822
5.4736
5.56997
5.66724
5.76533
5.86416
5.96363
6.06365
6.16413
6.26497
6.36606
6.4673
6.5686
6.66983
6.77088
6.87163
6.97198
7.07179
7.17094
7.26932
7.36679
7.46323
7.55852
7.65252
7.74512
7.83619
7.92561
8.01325
8.09901
8.18275
8.26438
8.34378
8.42085
8.49549
8.5676
8.6371
8.7039
8.76793
8.82912
8.8874
8.94272
8.99503
9.0443
9.0905
9.13361
9.17362
9.21052
9.24433
9.27506
9.30274
9.32741
9.34913
9.36795
9.38395
9.39721
9.40782
9.41589
9.42153
9.42487
9.42604
9.42518
9.42245
9.41797
9.41191
9.40438
9.39552
9.3854
9.37409
9.36156
9.34775
2.92604
2.90981
2.89566
2.88347
2.87321
2.86484
2.85836
2.85381
2.8512
2.85059
2.85201
2.85549
2.86108
2.86881
2.87869
2.89076
2.90502
2.9215
2.94019
2.96111
2.98426
3.00963
3.03722
3.06703
3.09905
3.13327
3.16968
3.20828
3.24904
3.29196
3.33702
3.38422
3.43352
3.48493
3.53841
3.59396
3.65154
3.71116
3.77277
3.83636
3.9019
3.96938
4.03875
4.10999
4.18307
4.25796
4.33462
4.41301
4.49309
4.57482
4.65816
4.74305
4.82945
4.9173
5.00655
5.09714
5.189
5.28206
5.37627
5.47154
5.5678
5.66497
5.76296
5.8617
5.96109
6.06103
6.16144
6.26221
6.36324
6.46443
6.56568
6.66687
6.76789
6.86862
6.96895
7.06874
7.16788
7.26625
7.36372
7.46016
7.55545
7.64946
7.74206
7.83314
7.92256
8.01022
8.09598
8.17973
8.26136
8.34076
8.41783
8.49247
8.56457
8.63406
8.70086
8.76487
8.82604
8.88431
8.93961
8.99192
9.04117
9.08736
9.13047
9.17047
9.20737
9.24119
9.27194
9.29964
9.32435
9.34611
9.36498
9.38104
9.39435
9.40502
9.41315
9.41883
9.4222
9.42336
9.42245
9.4196
9.41492
9.40855
9.40058
9.3911
9.38018
9.36783
9.35402
9.33867
2.92987
2.91214
2.89674
2.88354
2.87247
2.8635
2.85659
2.85174
2.84896
2.84826
2.84967
2.8532
2.85888
2.86672
2.87673
2.88893
2.90334
2.91995
2.93877
2.95981
2.98305
3.00851
3.03618
3.06605
3.09811
3.13235
3.16878
3.20737
3.24812
3.29101
3.33604
3.38318
3.43243
3.48377
3.53718
3.59265
3.65015
3.70967
3.77119
3.83468
3.90012
3.96749
4.03676
4.10789
4.18087
4.25565
4.33221
4.4105
4.49048
4.57212
4.65536
4.74017
4.82649
4.91426
5.00344
5.09396
5.18576
5.27877
5.37294
5.46817
5.5644
5.66155
5.75954
5.85827
5.95767
6.05763
6.15806
6.25886
6.35994
6.46118
6.56249
6.66375
6.76484
6.86565
6.96606
7.06595
7.1652
7.26367
7.36124
7.4578
7.5532
7.64732
7.74004
7.83123
7.92077
8.00853
8.09439
8.17825
8.25998
8.33947
8.41662
8.49134
8.56352
8.63307
8.69992
8.76399
8.8252
8.8835
8.93884
8.99116
9.04044
9.08665
9.12976
9.16977
9.20668
9.2405
9.27126
9.29897
9.32369
9.34546
9.36434
9.3804
9.39372
9.40439
9.41249
9.41815
9.42145
9.42252
9.42146
9.4184
9.41344
9.40667
9.39819
9.38807
9.37633
9.363
9.34802
9.3313
2.93122
2.91214
2.89558
2.88142
2.86957
2.85998
2.85261
2.84743
2.84443
2.8436
2.84495
2.84848
2.85419
2.8621
2.87221
2.88451
2.89903
2.91575
2.93468
2.95581
2.97915
3.00469
3.03243
3.06235
3.09446
3.12874
3.16519
3.20379
3.24454
3.28742
3.33242
3.37954
3.42875
3.48004
3.5334
3.58881
3.64625
3.70571
3.76716
3.83059
3.89596
3.96326
4.03246
4.10353
4.17644
4.25116
4.32766
4.40589
4.48583
4.56742
4.65063
4.7354
4.82169
4.90945
4.99862
5.08915
5.18096
5.27399
5.36818
5.46346
5.55975
5.65696
5.75502
5.85384
5.95333
6.0534
6.15396
6.25489
6.35611
6.4575
6.55897
6.6604
6.76168
6.86268
6.96329
7.06339
7.16284
7.26153
7.35932
7.45609
7.55171
7.64606
7.739
7.83041
7.92016
8.00813
8.0942
8.17825
8.26017
8.33984
8.41717
8.49204
8.56437
8.63406
8.70103
8.7652
8.82651
8.8849
8.94031
8.9927
9.04203
9.08827
9.13141
9.17145
9.20837
9.2422
9.27295
9.30066
9.32536
9.34711
9.36596
9.38198
9.39526
9.40586
9.41389
9.41944
9.42262
9.42351
9.42224
9.4189
9.41358
9.40638
9.39736
9.38657
9.37405
9.35979
9.34374
9.32582
2.92992
2.90961
2.89198
2.87691
2.86432
2.85413
2.84629
2.84075
2.8375
2.8365
2.83775
2.84124
2.84695
2.85489
2.86505
2.87744
2.89203
2.90885
2.92786
2.94909
2.97251
2.99813
3.02593
3.05591
3.08807
3.12239
3.15886
3.19748
3.23824
3.28113
3.32612
3.37323
3.42242
3.47369
3.52702
3.5824
3.63981
3.69923
3.76064
3.82403
3.88937
3.95664
4.0258
4.09685
4.16973
4.24443
4.32092
4.39914
4.47908
4.56068
4.6439
4.7287
4.81503
4.90284
4.99207
5.08266
5.17455
5.26768
5.36197
5.45737
5.55379
5.65115
5.74937
5.84837
5.94805
6.04832
6.14909
6.25025
6.35171
6.45336
6.55509
6.6568
6.75837
6.85967
6.96058
7.06099
7.16076
7.25978
7.3579
7.455
7.55095
7.64563
7.73889
7.83062
7.92069
8.00897
8.09535
8.17969
8.26188
8.34182
8.4194
8.49451
8.56706
8.63695
8.70411
8.76846
8.82992
8.88845
8.94397
8.99646
9.04587
9.09218
9.13537
9.17543
9.21237
9.24621
9.27695
9.30463
9.3293
9.351
9.36979
9.38574
9.39893
9.40942
9.41732
9.42271
9.4257
9.42636
9.42481
9.42114
9.41542
9.40774
9.39816
9.38673
9.37345
9.35833
9.34132
9.32235
2.92582
2.90439
2.88577
2.86986
2.85656
2.84578
2.83747
2.83158
2.82805
2.82686
2.82798
2.83139
2.83708
2.84502
2.85522
2.86765
2.88231
2.89919
2.91828
2.93958
2.96308
2.98876
3.01663
3.04667
3.07888
3.11324
3.14975
3.1884
3.22918
3.27208
3.31709
3.3642
3.4134
3.46466
3.51799
3.57336
3.63077
3.69018
3.75159
3.81497
3.88031
3.94757
4.01675
4.0878
4.1607
4.23543
4.31195
4.39021
4.4702
4.55186
4.63515
4.72004
4.80646
4.89437
4.98372
5.07445
5.16649
5.25978
5.35426
5.44986
5.54649
5.64408
5.74255
5.84181
5.94177
6.04233
6.14341
6.2449
6.3467
6.44871
6.55082
6.65291
6.75487
6.85657
6.9579
7.05873
7.15893
7.25838
7.35694
7.45448
7.55087
7.64598
7.73968
7.83183
7.92232
8.01101
8.09778
8.18251
8.26507
8.34537
8.42328
8.4987
8.57155
8.64172
8.70913
8.7737
8.83537
8.89408
8.94976
9.00238
9.0519
9.0983
9.14156
9.18167
9.21863
9.25247
9.2832
9.31085
9.33547
9.3571
9.3758
9.39164
9.40469
9.41504
9.42276
9.42794
9.43069
9.43108
9.42921
9.42516
9.41901
9.41084
9.4007
9.38862
9.37464
9.35873
9.34086
9.32097
2.91877
2.89633
2.87682
2.86012
2.84614
2.83481
2.82604
2.81978
2.81597
2.81457
2.81554
2.81886
2.82449
2.83242
2.84262
2.85509
2.86979
2.88673
2.90588
2.92725
2.95081
2.97656
3.00449
3.03459
3.06685
3.10126
3.13781
3.1765
3.21732
3.26025
3.30529
3.35242
3.40163
3.45292
3.50626
3.56166
3.61908
3.67851
3.73994
3.80335
3.86872
3.93603
4.00524
4.07635
4.14931
4.2241
4.3007
4.37905
4.45914
4.54091
4.62433
4.70936
4.79593
4.88402
4.97355
5.06448
5.15674
5.25028
5.34501
5.44088
5.53781
5.63571
5.73451
5.83412
5.93445
6.03541
6.13689
6.23881
6.34105
6.44352
6.5461
6.64868
6.75114
6.85336
6.95521
7.05657
7.15731
7.25729
7.3564
7.45448
7.55142
7.64707
7.74131
7.834
7.925
8.0142
8.10146
8.18667
8.26969
8.35042
8.42875
8.50457
8.57778
8.64829
8.71602
8.78088
8.84281
8.90174
8.95762
9.01042
9.06008
9.10659
9.14993
9.1901
9.2271
9.26094
9.29165
9.31926
9.3438
9.36534
9.38393
9.39963
9.41253
9.42268
9.43019
9.43513
9.43759
9.43766
9.43544
9.43099
9.42439
9.41572
9.40502
9.39233
9.37767
9.36104
9.34241
9.32172
2.90869
2.88533
2.86498
2.84756
2.83296
2.82109
2.81188
2.80526
2.80116
2.79954
2.80036
2.80356
2.80913
2.81702
2.82721
2.83969
2.85442
2.8714
2.89061
2.91203
2.93565
2.96146
2.98945
3.01961
3.05193
3.08639
3.123
3.16174
3.2026
3.24557
3.29065
3.33782
3.38708
3.43841
3.49179
3.54723
3.60469
3.66418
3.72567
3.78913
3.85457
3.92195
3.99124
4.06244
4.1355
4.21041
4.28712
4.36562
4.44585
4.52779
4.6114
4.69662
4.78341
4.87173
4.96151
5.05271
5.14527
5.23911
5.33418
5.4304
5.5277
5.626
5.72522
5.82527
5.92606
6.0275
6.12949
6.23193
6.33472
6.43774
6.5409
6.64407
6.74714
6.84998
6.95246
7.05446
7.15584
7.25648
7.35624
7.45498
7.55257
7.64887
7.74375
7.83707
7.9287
8.0185
8.10635
8.19213
8.2757
8.35696
8.43578
8.51207
8.58573
8.65665
8.72475
8.78996
8.85219
8.9114
8.96753
9.02052
9.07036
9.11701
9.16045
9.20069
9.23773
9.27158
9.30226
9.32981
9.35428
9.37571
9.39416
9.4097
9.4224
9.43233
9.43959
9.44425
9.4464
9.44613
9.44352
9.43865
9.43159
9.42241
9.41117
9.39789
9.38261
9.36532
9.346
9.32462
2.89549
2.87128
2.85018
2.83207
2.81688
2.80451
2.79487
2.7879
2.78353
2.78169
2.78233
2.78542
2.7909
2.79874
2.80891
2.82139
2.83614
2.85315
2.8724
2.89387
2.91755
2.94342
2.97147
3.00169
3.03407
3.06859
3.10526
3.14406
3.18498
3.22801
3.27314
3.32037
3.36969
3.42108
3.47453
3.53003
3.58757
3.64713
3.7087
3.77227
3.8378
3.90529
3.9747
4.04603
4.11924
4.1943
4.27119
4.34986
4.4303
4.51246
4.5963
4.68178
4.76885
4.85746
4.94756
5.0391
5.13202
5.22624
5.32172
5.41837
5.51613
5.61491
5.71463
5.81521
5.91656
6.01857
6.12116
6.22422
6.32765
6.43134
6.53518
6.63905
6.74283
6.84639
6.94962
7.05236
7.15451
7.25591
7.35643
7.45593
7.55428
7.65134
7.74697
7.84102
7.93337
8.02388
8.11242
8.19885
8.28306
8.36493
8.44434
8.52117
8.59534
8.66674
8.73528
8.80089
8.86349
8.92302
8.97943
9.03267
9.0827
9.12951
9.17308
9.2134
9.25048
9.28434
9.315
9.34249
9.36686
9.38816
9.40646
9.42181
9.43429
9.44398
9.45095
9.4553
9.45712
9.45647
9.45346
9.44815
9.44062
9.43095
9.41917
9.40533
9.38946
9.37158
9.35165
9.32966
2.87909
2.8541
2.8323
2.81357
2.79782
2.78498
2.77494
2.76763
2.76297
2.76092
2.76139
2.76435
2.76974
2.77752
2.78766
2.80013
2.81489
2.83193
2.85121
2.87273
2.89646
2.92238
2.95049
2.98078
3.01322
3.04781
3.08455
3.12341
3.1644
3.2075
3.25271
3.30002
3.34942
3.40089
3.45443
3.51002
3.56766
3.62733
3.68902
3.7527
3.81837
3.886
3.95558
4.02707
4.10046
4.17573
4.25283
4.33174
4.41243
4.49486
4.579
4.66479
4.75219
4.84116
4.93165
5.02359
5.11694
5.21163
5.30759
5.40475
5.50304
5.60239
5.7027
5.8039
5.90589
6.00858
6.11186
6.21564
6.31981
6.42427
6.52889
6.63356
6.73817
6.84257
6.94664
7.05024
7.15325
7.25552
7.35692
7.4573
7.55652
7.65444
7.75092
7.84581
7.93899
8.0303
8.11962
8.20681
8.29175
8.37431
8.45438
8.53184
8.60659
8.67854
8.74759
8.81365
8.87667
8.93657
8.9933
9.04681
9.09708
9.14407
9.18778
9.22819
9.26533
9.2992
9.32983
9.35725
9.38152
9.40268
9.4208
9.43594
9.44818
9.45759
9.46426
9.46828
9.46973
9.46869
9.46526
9.45951
9.45151
9.44133
9.42904
9.41467
9.39826
9.37982
9.35935
9.33684
2.85942
2.83373
2.81127
2.79196
2.7757
2.7624
2.75197
2.74434
2.73942
2.73714
2.73745
2.74027
2.74557
2.75329
2.76339
2.77585
2.79061
2.80767
2.82698
2.84854
2.87232
2.8983
2.92647
2.95682
2.98933
3.024
3.06081
3.09976
3.14083
3.18402
3.22932
3.27672
3.32621
3.37779
3.43144
3.48715
3.54491
3.60472
3.66655
3.73039
3.79623
3.86404
3.93381
4.00552
4.07914
4.15464
4.23201
4.31121
4.3922
4.47496
4.55943
4.6456
4.7334
4.82279
4.91372
5.00615
5.1
5.19521
5.29173
5.38949
5.4884
5.58839
5.68938
5.79129
5.89401
5.99746
6.10154
6.20614
6.31115
6.41648
6.52199
6.62757
6.7331
6.83845
6.94348
7.04805
7.15204
7.25529
7.35767
7.45904
7.55924
7.65813
7.75557
7.85141
7.94551
8.03773
8.12793
8.21597
8.30173
8.38507
8.46588
8.54405
8.61946
8.69202
8.76163
8.82822
8.8917
8.95201
9.00911
9.06293
9.11346
9.16066
9.20452
9.24505
9.28224
9.31613
9.34672
9.37408
9.39823
9.41923
9.43716
9.45207
9.46404
9.47316
9.47951
9.48317
9.48424
9.48279
9.47892
9.47272
9.46424
9.45358
9.44078
9.4259
9.40898
9.39004
9.36909
9.34611
2.83644
2.81008
2.78702
2.76716
2.75042
2.7367
2.72591
2.71796
2.71279
2.7103
2.71043
2.71313
2.71833
2.72598
2.73604
2.74847
2.76324
2.78031
2.79965
2.82125
2.84508
2.87112
2.89935
2.92977
2.96236
2.99711
3.034
3.07304
3.11421
3.15749
3.2029
3.25041
3.30002
3.35172
3.40551
3.46136
3.51928
3.57925
3.64126
3.70528
3.77132
3.83935
3.90936
3.98132
4.0552
4.131
4.20868
4.2882
4.36955
4.45268
4.53757
4.62416
4.71242
4.80229
4.89374
4.9867
5.08113
5.17695
5.2741
5.37252
5.47213
5.57286
5.67461
5.77731
5.88087
5.98518
6.09014
6.19566
6.30162
6.40792
6.51443
6.62103
6.72759
6.83399
6.94009
7.04574
7.15082
7.25517
7.35865
7.46111
7.5624
7.66237
7.76088
7.85777
7.95291
8.04613
8.13731
8.2263
8.31296
8.39718
8.47882
8.55777
8.63392
8.70716
8.7774
8.84456
8.90856
8.96934
9.02683
9.08101
9.13182
9.17926
9.2233
9.26395
9.30121
9.33511
9.36567
9.39294
9.41697
9.4378
9.45552
9.47018
9.48187
9.49068
9.49668
9.49996
9.50063
9.49876
9.49445
9.48778
9.47883
9.46768
9.45439
9.43903
9.42163
9.40223
9.38083
9.35745
2.81008
2.78311
2.75948
2.73912
2.72192
2.7078
2.69666
2.68842
2.683
2.6803
2.68027
2.68284
2.68794
2.69553
2.70554
2.71795
2.73272
2.7498
2.76917
2.79081
2.81468
2.84078
2.86909
2.89958
2.93225
2.96709
3.00408
3.04321
3.08449
3.12789
3.17342
3.22106
3.27081
3.32265
3.3766
3.43262
3.49071
3.55087
3.61308
3.67733
3.74361
3.81189
3.88217
3.95441
4.02861
4.10474
4.18277
4.26268
4.34443
4.428
4.51334
4.60041
4.68919
4.77961
4.87164
4.96521
5.06028
5.15677
5.25464
5.35381
5.4542
5.55574
5.65834
5.76193
5.8664
5.97167
6.07762
6.18415
6.29116
6.39853
6.50614
6.61387
6.72158
6.82915
6.93642
7.04327
7.14955
7.25511
7.3598
7.46346
7.56596
7.66713
7.76682
7.86487
7.96114
8.05548
8.14773
8.23777
8.32544
8.41061
8.49317
8.57298
8.64993
8.72393
8.79487
8.86266
8.92724
8.98852
9.04647
9.10102
9.15216
9.19985
9.24408
9.28486
9.3222
9.35612
9.38665
9.41383
9.43772
9.45837
9.47586
9.49026
9.50165
9.51012
9.51575
9.51864
9.51889
9.51658
9.51181
9.50468
9.49525
9.48363
9.46986
9.45403
9.43618
9.41634
9.39455
9.3708
2.78031
2.75276
2.7286
2.70776
2.69013
2.67563
2.66417
2.65565
2.64998
2.64709
2.6469
2.64934
2.65435
2.66186
2.67184
2.68422
2.69898
2.71608
2.73548
2.75715
2.78108
2.80724
2.83562
2.86619
2.89895
2.93388
2.97098
3.01023
3.05162
3.09515
3.14082
3.18861
3.23851
3.29053
3.34465
3.40086
3.45916
3.51954
3.58199
3.64649
3.71303
3.7816
3.85218
3.92476
3.99931
4.07581
4.15425
4.23458
4.31678
4.40083
4.48668
4.57431
4.66365
4.75469
4.84735
4.9416
5.03738
5.13463
5.23328
5.33327
5.43452
5.53696
5.64051
5.74507
5.85055
5.95686
6.0639
6.17155
6.27971
6.38827
6.49708
6.60604
6.71501
6.82385
6.93242
7.04058
7.14818
7.25506
7.36107
7.46606
7.56988
7.67235
7.77333
7.87266
7.97018
8.06573
8.15917
8.25034
8.33911
8.42534
8.5089
8.58966
8.6675
8.74232
8.81402
8.88251
8.94771
9.00955
9.06798
9.12296
9.17444
9.22241
9.26686
9.30779
9.34521
9.37914
9.40964
9.43673
9.46047
9.48093
9.49818
9.51229
9.52336
9.53147
9.53672
9.5392
9.53901
9.53625
9.53102
9.52341
9.51351
9.5014
9.48717
9.47089
9.4526
9.43236
9.4102
9.38613
2.74707
2.71898
2.69432
2.67302
2.65499
2.64014
2.62836
2.61957
2.61368
2.6106
2.61025
2.61257
2.61748
2.62493
2.63486
2.64723
2.66198
2.67909
2.69852
2.72024
2.74422
2.77045
2.7989
2.82956
2.86241
2.89745
2.93466
2.97403
3.01556
3.05924
3.10505
3.153
3.20308
3.25529
3.30961
3.36604
3.42457
3.4852
3.5479
3.61269
3.67953
3.74843
3.81935
3.8923
3.96724
4.04416
4.12304
4.20384
4.28655
4.37113
4.45755
4.54577
4.63575
4.72745
4.82083
4.91582
5.01238
5.11045
5.20996
5.31085
5.41305
5.51647
5.62104
5.72666
5.83325
5.9407
6.04892
6.15779
6.26721
6.37704
6.48718
6.59748
6.70782
6.81805
6.92803
7.03761
7.14664
7.25496
7.36242
7.46885
7.5741
7.678
7.78039
7.8811
7.97997
8.07685
8.17158
8.264
8.35397
8.44134
8.52599
8.60777
8.68658
8.7623
8.83483
8.90407
8.96996
9.03241
9.09137
9.1468
9.19866
9.24694
9.29162
9.3327
9.37021
9.40418
9.43463
9.46162
9.4852
9.50545
9.52245
9.53626
9.54699
9.55473
9.55957
9.56162
9.56098
9.55775
9.55204
9.54395
9.53357
9.52099
9.5063
9.48957
9.47087
9.45025
9.42774
9.40337
2.71034
2.68173
2.6566
2.63487
2.61645
2.60125
2.58917
2.58013
2.57402
2.57075
2.57026
2.57246
2.57728
2.58467
2.59456
2.6069
2.62166
2.63878
2.65824
2.68
2.70405
2.73034
2.75888
2.78963
2.82259
2.85774
2.89507
2.93458
2.97625
3.02008
3.06607
3.1142
3.16448
3.21689
3.27143
3.3281
3.38689
3.44778
3.51078
3.57588
3.64306
3.71231
3.78361
3.85696
3.93234
4.00972
4.08908
4.17041
4.25367
4.33883
4.42587
4.51474
4.60541
4.69785
4.79199
4.88779
4.9852
5.08416
5.18461
5.28648
5.38969
5.49418
5.59985
5.70663
5.81441
5.92311
6.03261
6.1428
6.25357
6.3648
6.47635
6.58811
6.69993
6.81166
6.92317
7.03429
7.14487
7.25475
7.36378
7.47177
7.57858
7.68402
7.78793
7.89014
7.99049
8.0888
8.18492
8.27869
8.36996
8.45858
8.54441
8.62731
8.70717
8.78386
8.85729
8.92735
8.99398
9.05708
9.11662
9.17254
9.22482
9.27342
9.31835
9.35961
9.39722
9.4312
9.46161
9.48849
9.51191
9.53194
9.54866
9.56216
9.57252
9.57987
9.58428
9.58588
9.58477
9.58106
9.57486
9.56628
9.55541
9.54236
9.52721
9.51005
9.49095
9.46996
9.44713
9.42249
2.67006
2.64096
2.61537
2.59323
2.57444
2.55892
2.54656
2.53726
2.53094
2.5275
2.52687
2.52896
2.53369
2.54102
2.55087
2.56319
2.57795
2.59509
2.61458
2.6364
2.6605
2.68687
2.71549
2.74635
2.77942
2.81469
2.85216
2.89181
2.93364
2.97764
3.02381
3.07214
3.12263
3.17527
3.23006
3.28699
3.34605
3.40725
3.47057
3.53601
3.60355
3.67319
3.74491
3.8187
3.89454
3.97242
4.05232
4.1342
4.21806
4.30386
4.39156
4.48115
4.57257
4.66579
4.76076
4.85743
4.95576
5.05568
5.15714
5.26006
5.36438
5.47001
5.57688
5.6849
5.79397
5.90399
6.01487
6.12648
6.23871
6.35144
6.46453
6.57785
6.69126
6.80462
6.91776
7.03054
7.1428
7.25437
7.36508
7.47476
7.58324
7.69034
7.7959
7.89973
8.00167
8.10153
8.19916
8.29439
8.38707
8.47703
8.56413
8.64824
8.72923
8.80698
8.88137
8.95232
9.01975
9.08357
9.14372
9.20018
9.25289
9.30185
9.34705
9.38849
9.4262
9.46022
9.49058
9.51735
9.54059
9.56038
9.57681
9.58996
9.59995
9.60688
9.61085
9.61198
9.61038
9.60617
9.59947
9.59038
9.57902
9.56549
9.54988
9.53229
9.51279
9.49145
9.46831
9.44341
2.62621
2.59662
2.5706
2.54806
2.52892
2.51308
2.50045
2.49092
2.48439
2.48079
2.48002
2.482
2.48665
2.49392
2.50373
2.51605
2.5308
2.54797
2.5675
2.58936
2.61353
2.63999
2.6687
2.69966
2.73285
2.76825
2.80586
2.84567
2.88768
2.93186
2.97823
3.02677
3.07749
3.13038
3.18543
3.24264
3.30201
3.36353
3.4272
3.493
3.56094
3.631
3.70316
3.77743
3.85378
3.9322
4.01267
4.09516
4.17966
4.26614
4.35456
4.44491
4.53713
4.6312
4.72706
4.82467
4.92398
5.02493
5.12747
5.23152
5.33701
5.44387
5.55202
5.66137
5.77182
5.88327
5.99562
6.10875
6.22254
6.33688
6.45161
6.56661
6.68173
6.79683
6.91173
7.0263
7.14035
7.25373
7.36625
7.47774
7.58802
7.69692
7.80424
7.90982
8.01346
8.115
8.21425
8.31105
8.40524
8.49665
8.58513
8.67054
8.75274
8.83162
8.90707
8.97897
9.04726
9.11184
9.17267
9.22969
9.28288
9.33222
9.3777
9.41935
9.45717
9.49121
9.52152
9.54817
9.57122
9.59076
9.60688
9.61967
9.62926
9.63574
9.63924
9.63988
9.63778
9.63305
9.62583
9.61622
9.60436
9.59034
9.57427
9.55625
9.53635
9.51466
9.49123
9.46609
2.57873
2.54869
2.52224
2.49932
2.47984
2.46369
2.45079
2.44103
2.43432
2.43055
2.42965
2.43152
2.4361
2.44331
2.4531
2.4654
2.48017
2.49735
2.51693
2.53885
2.56309
2.58963
2.61844
2.64952
2.68283
2.71837
2.75614
2.79612
2.8383
2.88269
2.92927
2.97804
3.029
3.08215
3.13749
3.19501
3.2547
3.31657
3.3806
3.44681
3.51516
3.58567
3.65832
3.7331
3.80999
3.88898
3.97006
4.0532
4.13839
4.22559
4.31479
4.40594
4.49902
4.59399
4.6908
4.78941
4.88977
4.99182
5.0955
5.20075
5.3075
5.41567
5.52518
5.63594
5.74786
5.86083
5.97475
6.08951
6.20497
6.32101
6.4375
6.55429
6.67124
6.78819
6.90499
7.02145
7.13743
7.25274
7.3672
7.48063
7.59285
7.70366
7.81288
7.92033
8.02581
8.12914
8.23014
8.32862
8.42443
8.5174
8.60736
8.69417
8.77768
8.85778
8.93435
9.00728
9.07649
9.14189
9.20344
9.26107
9.31477
9.36452
9.41031
9.45217
9.49011
9.52418
9.55444
9.58095
9.6038
9.62307
9.63886
9.65127
9.66043
9.66645
9.66946
9.66958
9.66694
9.66168
9.65391
9.64378
9.63139
9.61688
9.60034
9.58188
9.5616
9.53956
9.51583
9.49045
2.52761
2.49711
2.47025
2.44696
2.42714
2.4107
2.39754
2.38756
2.38066
2.37674
2.37571
2.37748
2.38199
2.38915
2.39891
2.4112
2.42598
2.4432
2.46281
2.4848
2.50912
2.53575
2.56467
2.59586
2.62931
2.665
2.70293
2.74309
2.78546
2.83006
2.87687
2.92588
2.97711
3.03054
3.08618
3.14402
3.20406
3.26629
3.33073
3.39735
3.46616
3.53714
3.6103
3.68562
3.76309
3.84269
3.92442
4.00825
4.09416
4.18214
4.27215
4.36416
4.45815
4.55407
4.65188
4.75155
4.85302
4.95623
5.06113
5.16766
5.27574
5.38529
5.49625
5.60851
5.72198
5.83657
5.95216
6.06863
6.18587
6.30374
6.42209
6.54079
6.65968
6.77861
6.89741
7.01591
7.13394
7.25131
7.36784
7.48334
7.59762
7.71049
7.82174
7.93119
8.03863
8.14388
8.24675
8.34705
8.4446
8.53923
8.63078
8.71909
8.80402
8.88542
8.9632
9.03723
9.10743
9.17371
9.23603
9.29432
9.34857
9.39875
9.44487
9.48695
9.52501
9.55912
9.58932
9.61569
9.63832
9.6573
9.67273
9.68475
9.69346
9.69899
9.70147
9.70105
9.69786
9.69203
9.6837
9.67301
9.66009
9.64506
9.62805
9.60915
9.58847
9.56608
9.54206
9.51645
2.47279
2.44185
2.41458
2.39093
2.37078
2.35406
2.34065
2.33045
2.32337
2.31929
2.31814
2.31982
2.32426
2.33137
2.34111
2.35339
2.36819
2.38544
2.4051
2.42715
2.45156
2.47828
2.50731
2.53863
2.57222
2.60807
2.64618
2.68652
2.7291
2.77392
2.82096
2.87024
2.92174
2.97547
3.03143
3.08961
3.15001
3.21264
3.27749
3.34456
3.41384
3.48533
3.55903
3.63492
3.71299
3.79324
3.87565
3.96021
4.04689
4.13568
4.22655
4.31946
4.41441
4.51133
4.61021
4.71099
4.81363
4.91807
5.02426
5.13212
5.24161
5.35263
5.4651
5.57895
5.69407
5.81036
5.92771
6.04601
6.16513
6.28492
6.40525
6.52597
6.64693
6.76796
6.88889
7.00955
7.12976
7.24933
7.36806
7.48577
7.60226
7.71731
7.83073
7.94232
8.05186
8.15917
8.26403
8.36627
8.46569
8.56211
8.65535
8.74527
8.8317
8.91452
8.99358
9.06879
9.14006
9.20729
9.27042
9.32942
9.38425
9.4349
9.48137
9.52368
9.56188
9.59602
9.62615
9.65237
9.67477
9.69344
9.70851
9.72009
9.72832
9.73333
9.73527
9.73427
9.73049
9.72407
9.71516
9.7039
9.69042
9.67486
9.65735
9.638
9.61691
9.59417
9.56986
9.54402
2.41424
2.38286
2.3552
2.33118
2.31072
2.29371
2.28005
2.26965
2.26238
2.25816
2.25689
2.25848
2.26285
2.26993
2.27964
2.29193
2.30674
2.32402
2.34375
2.36587
2.39035
2.41718
2.44633
2.47778
2.51152
2.54754
2.58582
2.62636
2.66916
2.71421
2.76151
2.81105
2.86285
2.91689
2.97318
3.03172
3.09251
3.15554
3.22083
3.28836
3.35814
3.43017
3.50442
3.58091
3.65963
3.74055
3.82368
3.909
3.99648
4.08612
4.17789
4.27176
4.3677
4.46568
4.56567
4.66762
4.77148
4.87721
4.98475
5.09403
5.20498
5.31754
5.43162
5.54713