# vtk DataFile Version 2.0
Lid-driven cavity
ASCII
DATASET STRUCTURED_POINTS
DIMENSIONS 128 128 1
ORIGIN 0.00390625 0.00390625 0
SPACING 0.0078125 0.0078125 1
POINT_DATA 16384
SCALARS pressure double 1
LOOKUP_TABLE default
-0.872769
-0.873736
-0.875345
-0.877033
-0.878407
-0.879222
-0.879325
-0.878633
-0.877097
-0.874697
-0.871426
-0.867285
-0.862284
-0.856432
-0.84974
-0.842221
-0.833886
-0.824745
-0.814811
-0.804093
-0.792602
-0.780346
-0.767337
-0.753583
-0.739095
-0.723882
-0.707956
-0.691326
-0.674004
-0.656
-0.637327
-0.617997
-0.598022
-0.577414
-0.556187
-0.534355
-0.511932
-0.488931
-0.465369
-0.441259
-0.416617
-0.39146
-0.365804
-0.339665
-0.31306
-0.286007
-0.258523
-0.230626
-0.202335
-0.173668
-0.144645
-0.115283
-0.0856043
-0.0556271
-0.0253719
0.00514086
0.0358906
0.0668564
0.0980171
0.129351
0.160838
0.192454
0.224179
0.25599
0.287865
0.319781
0.351716
0.383648
0.415553
0.447409
0.479192
0.51088
0.54245
0.573877
0.605139
0.636213
0.667074
0.697701
0.728069
0.758156
0.787938
0.817393
0.846497
0.875228
0.903564
0.931481
0.958959
0.985974
1.0125
1.03853
1.06403
1.08898
1.11337
1.13716
1.16035
1.18291
1.20482
1.22607
1.24664
1.2665
1.28565
1.30406
1.32172
1.33862
1.35473
1.37005
1.38455
1.39823
1.41106
1.42305
1.43416
1.4444
1.45374
1.46217
1.46968
1.47625
1.48188
1.48656
1.49027
1.49302
1.49482
1.49569
1.49568
1.4949
1.4935
1.49175
1.49006
1.48904
-0.871809
-0.872775
-0.874048
-0.875294
-0.876237
-0.876677
-0.876477
-0.875549
-0.873838
-0.87131
-0.867952
-0.863755
-0.858722
-0.852856
-0.846165
-0.838657
-0.830341
-0.821227
-0.811323
-0.800639
-0.789185
-0.776969
-0.764002
-0.750293
-0.735852
-0.720688
-0.704813
-0.688236
-0.670968
-0.653021
-0.634407
-0.615137
-0.595224
-0.57468
-0.553519
-0.531754
-0.5094
-0.48647
-0.462979
-0.438943
-0.414377
-0.389297
-0.363719
-0.33766
-0.311136
-0.284165
-0.256765
-0.228953
-0.200748
-0.172169
-0.143233
-0.113962
-0.0843732
-0.0544876
-0.0243249
0.00609459
0.0367502
0.067621
0.0986861
0.129924
0.161313
0.192832
0.224459
0.256172
0.287947
0.319764
0.3516
0.383432
0.415237
0.446993
0.478677
0.510265
0.541734
0.573062
0.604224
0.635198
0.665961
0.696489
0.726759
0.756749
0.786434
0.815793
0.844802
0.873439
0.901681
0.929506
0.956891
0.983816
1.01026
1.0362
1.06161
1.08648
1.11078
1.13449
1.1576
1.18008
1.20192
1.22309
1.24359
1.26338
1.28246
1.30081
1.3184
1.33524
1.35129
1.36655
1.381
1.39462
1.40741
1.41935
1.43043
1.44063
1.44995
1.45837
1.46587
1.47246
1.47813
1.48286
1.48667
1.48955
1.49154
1.49266
1.49298
1.49259
1.49165
1.49037
1.48904
1.48801
-0.8702
-0.871503
-0.872778
-0.873857
-0.874568
-0.874772
-0.874358
-0.87325
-0.871394
-0.868757
-0.865317
-0.861064
-0.855994
-0.850108
-0.843409
-0.835904
-0.827598
-0.818499
-0.808616
-0.797957
-0.786531
-0.774346
-0.761412
-0.747738
-0.733334
-0.718209
-0.702373
-0.685838
-0.668614
-0.650712
-0.632144
-0.612922
-0.593058
-0.572565
-0.551456
-0.529744
-0.507444
-0.48457
-0.461137
-0.437159
-0.412653
-0.387633
-0.362117
-0.33612
-0.30966
-0.282754
-0.25542
-0.227675
-0.199537
-0.171026
-0.14216
-0.112959
-0.083441
-0.0536268
-0.0235362
0.00681054
0.0373928
0.0681898
0.0991805
0.130344
0.161658
0.193101
0.224652
0.256288
0.287987
0.319728
0.351486
0.383241
0.41497
0.446648
0.478255
0.509766
0.541159
0.572409
0.603495
0.634394
0.66508
0.695533
0.725728
0.755643
0.785255
0.81454
0.843476
0.872041
0.900212
0.927966
0.955282
0.982138
1.00851
1.03438
1.05973
1.08453
1.10877
1.13242
1.15547
1.17789
1.19967
1.22079
1.24123
1.26097
1.28
1.29829
1.31584
1.33263
1.34864
1.36386
1.37827
1.39186
1.40461
1.41652
1.42757
1.43776
1.44706
1.45547
1.46299
1.46959
1.4753
1.48009
1.48398
1.48698
1.48912
1.49043
1.49097
1.49084
1.49014
1.48904
1.4877
1.48632
-0.868509
-0.870259
-0.871706
-0.872787
-0.873411
-0.873487
-0.872938
-0.871704
-0.869739
-0.867011
-0.863501
-0.859196
-0.85409
-0.84818
-0.841468
-0.833957
-0.825654
-0.816563
-0.806693
-0.79605
-0.784643
-0.772479
-0.759569
-0.74592
-0.731543
-0.716446
-0.700641
-0.684136
-0.666944
-0.649076
-0.630542
-0.611355
-0.591527
-0.571071
-0.550001
-0.528329
-0.506069
-0.483236
-0.459844
-0.43591
-0.411447
-0.386471
-0.361
-0.335049
-0.308636
-0.281777
-0.25449
-0.226793
-0.198705
-0.170243
-0.141427
-0.112276
-0.0828094
-0.0530466
-0.0230077
0.00728684
0.0378166
0.0685608
0.0994984
0.130608
0.161869
0.193258
0.224755
0.256337
0.287982
0.319668
0.351373
0.383073
0.414748
0.446372
0.477925
0.509382
0.540721
0.571918
0.602951
0.633796
0.66443
0.69483
0.724973
0.754836
0.784397
0.813631
0.842517
0.871032
0.899154
0.926859
0.954128
0.980937
1.00726
1.03309
1.05839
1.08315
1.10734
1.13095
1.15396
1.17634
1.19808
1.21916
1.23956
1.25927
1.27826
1.29652
1.31404
1.33079
1.34677
1.36196
1.37634
1.38991
1.40265
1.41454
1.42558
1.43575
1.44505
1.45346
1.46099
1.46762
1.47336
1.47821
1.48217
1.48527
1.48752
1.48896
1.48965
1.48964
1.48904
1.48793
1.48642
1.48457
-0.867127
-0.869317
-0.871002
-0.872178
-0.872805
-0.872832
-0.87221
-0.870896
-0.868854
-0.866059
-0.862492
-0.858141
-0.853
-0.847065
-0.840336
-0.832817
-0.824509
-0.81542
-0.805554
-0.794919
-0.783522
-0.771372
-0.758476
-0.744843
-0.730482
-0.715404
-0.699617
-0.683133
-0.665962
-0.648114
-0.629603
-0.610439
-0.590634
-0.570203
-0.549157
-0.52751
-0.505276
-0.482469
-0.459104
-0.435196
-0.410761
-0.385814
-0.360371
-0.334449
-0.308064
-0.281235
-0.253978
-0.226311
-0.198253
-0.169822
-0.141036
-0.111916
-0.0824804
-0.0527488
-0.0227414
0.00752165
0.0380198
0.0687323
0.0996381
0.130716
0.161945
0.193302
0.224767
0.256318
0.287931
0.319585
0.351258
0.382927
0.414569
0.446163
0.477684
0.50911
0.540418
0.571585
0.602588
0.633402
0.664007
0.694377
0.724491
0.754326
0.783857
0.813063
0.841921
0.870409
0.898503
0.926182
0.953424
0.980207
1.00651
1.03231
1.05759
1.08232
1.10649
1.13008
1.15306
1.17542
1.19714
1.2182
1.23858
1.25826
1.27724
1.29548
1.31298
1.32972
1.34568
1.36086
1.37523
1.38878
1.40151
1.41339
1.42443
1.4346
1.4439
1.45233
1.45988
1.46653
1.47231
1.4772
1.48122
1.48439
1.48672
1.48824
1.489
1.48905
1.48844
1.48723
1.48547
1.48316
-0.866303
-0.868879
-0.870811
-0.872122
-0.872804
-0.872834
-0.872184
-0.870826
-0.868735
-0.865892
-0.862281
-0.857892
-0.85272
-0.846761
-0.840013
-0.83248
-0.824164
-0.815069
-0.805202
-0.794567
-0.783173
-0.771026
-0.758135
-0.744509
-0.730155
-0.715085
-0.699307
-0.682831
-0.665669
-0.647832
-0.62933
-0.610177
-0.590383
-0.569962
-0.548927
-0.527291
-0.505068
-0.482272
-0.458919
-0.435022
-0.410598
-0.385663
-0.360231
-0.334321
-0.307948
-0.28113
-0.253884
-0.226229
-0.198183
-0.169763
-0.140989
-0.11188
-0.0824558
-0.0527353
-0.0227389
0.00751327
0.0380006
0.0687025
0.0995978
0.130665
0.161884
0.193232
0.224687
0.256227
0.287831
0.319476
0.351139
0.382799
0.414433
0.446018
0.477531
0.50895
0.54025
0.571409
0.602404
0.633212
0.663809
0.694173
0.72428
0.754108
0.783634
0.812834
0.841686
0.870168
0.898257
0.925931
0.953168
0.979946
1.00624
1.03204
1.05731
1.08204
1.10621
1.12979
1.15277
1.17513
1.19684
1.2179
1.23827
1.25796
1.27693
1.29517
1.31266
1.3294
1.34536
1.36054
1.37491
1.38846
1.40119
1.41308
1.42412
1.4343
1.44362
1.45206
1.45962
1.46631
1.47212
1.47705
1.48112
1.48433
1.4867
1.48827
1.48906
1.4891
1.48843
1.48708
1.48506
1.48235
-0.866189
-0.869085
-0.871244
-0.8727
-0.873463
-0.873527
-0.872879
-0.871504
-0.869385
-0.86651
-0.862866
-0.858448
-0.853248
-0.847265
-0.840498
-0.832949
-0.824619
-0.815514
-0.805637
-0.794996
-0.783596
-0.771445
-0.758551
-0.744922
-0.730566
-0.715493
-0.699713
-0.683235
-0.666071
-0.648232
-0.629728
-0.610572
-0.590775
-0.570352
-0.549313
-0.527674
-0.505448
-0.482648
-0.459291
-0.43539
-0.410961
-0.386021
-0.360584
-0.334668
-0.308289
-0.281465
-0.254213
-0.226551
-0.198497
-0.170069
-0.141288
-0.11217
-0.0827371
-0.0530076
-0.0230017
0.00726022
0.0377577
0.0684701
0.0993763
0.130455
0.161685
0.193045
0.224512
0.256065
0.287682
0.31934
0.351017
0.38269
0.414338
0.445938
0.477465
0.508898
0.540214
0.571388
0.602399
0.633222
0.663835
0.694215
0.724338
0.754182
0.783724
0.812941
0.841809
0.870308
0.898413
0.926103
0.953356
0.980151
1.00646
1.03228
1.05757
1.08231
1.10649
1.13009
1.15308
1.17545
1.19718
1.21825
1.23864
1.25834
1.27732
1.29558
1.31309
1.32983
1.34581
1.36099
1.37538
1.38894
1.40169
1.41359
1.42464
1.43484
1.44418
1.45264
1.46023
1.46694
1.47278
1.47774
1.48184
1.48508
1.48749
1.48907
1.48985
1.48985
1.4891
1.4876
1.48534
1.4823
-0.866876
-0.870029
-0.872384
-0.873978
-0.87483
-0.874944
-0.874317
-0.872942
-0.870812
-0.867917
-0.86425
-0.859807
-0.854584
-0.848579
-0.841791
-0.834223
-0.825876
-0.816755
-0.806864
-0.796209
-0.784797
-0.772633
-0.759727
-0.746085
-0.731717
-0.716632
-0.700839
-0.684348
-0.667171
-0.649317
-0.630799
-0.611627
-0.591815
-0.571375
-0.55032
-0.528663
-0.506418
-0.4836
-0.460223
-0.436302
-0.411852
-0.38689
-0.361431
-0.335492
-0.30909
-0.282241
-0.254964
-0.227277
-0.199197
-0.170742
-0.141933
-0.112788
-0.0833258
-0.053567
-0.0235312
0.0067613
0.0372899
0.068034
0.0989724
0.130084
0.161347
0.192741
0.224243
0.25583
0.287482
0.319176
0.350889
0.382599
0.414284
0.44592
0.477485
0.508956
0.540309
0.571521
0.60257
0.633432
0.664084
0.694502
0.724665
0.754547
0.784128
0.813383
0.84229
0.870826
0.89897
0.926698
0.953988
0.98082
1.00717
1.03302
1.05834
1.08312
1.10734
1.13097
1.154
1.1764
1.19816
1.21926
1.23969
1.25941
1.27842
1.29671
1.31424
1.33102
1.34702
1.36223
1.37663
1.39023
1.40299
1.41492
1.426
1.43622
1.44558
1.45406
1.46168
1.46842
1.47428
1.47927
1.4834
1.48666
1.48907
1.49065
1.49141
1.49136
1.49051
1.48886
1.4864
1.4831
-0.868417
-0.871771
-0.87429
-0.876009
-0.876947
-0.877116
-0.87652
-0.875157
-0.873025
-0.87012
-0.866437
-0.861975
-0.856731
-0.850704
-0.843894
-0.836305
-0.827937
-0.818795
-0.808884
-0.798209
-0.786776
-0.774592
-0.761665
-0.748002
-0.733612
-0.718504
-0.702688
-0.686174
-0.668971
-0.651091
-0.632546
-0.613347
-0.593506
-0.573035
-0.551949
-0.53026
-0.507982
-0.48513
-0.461718
-0.43776
-0.413274
-0.388273
-0.362775
-0.336795
-0.310352
-0.283461
-0.256141
-0.228409
-0.200284
-0.171783
-0.142927
-0.113734
-0.0842231
-0.0544146
-0.0243283
0.00601555
0.0365963
0.0673933
0.0983854
0.129551
0.16087
0.192319
0.223877
0.255522
0.287231
0.318983
0.350755
0.382524
0.414268
0.445965
0.47759
0.509121
0.540535
0.571809
0.602919
0.633842
0.664555
0.695035
0.725258
0.755202
0.784843
0.814159
0.843126
0.871723
0.899926
0.927713
0.955063
0.981952
1.00836
1.03426
1.05965
1.08448
1.10875
1.13244
1.15552
1.17797
1.19978
1.22093
1.2414
1.26117
1.28023
1.29855
1.31613
1.33294
1.34898
1.36423
1.37867
1.3923
1.4051
1.41706
1.42817
1.43842
1.44781
1.45633
1.46397
1.47074
1.47663
1.48164
1.48578
1.48906
1.49147
1.49304
1.49376
1.49365
1.4927
1.49093
1.4883
1.4848
-0.87084
-0.874351
-0.877004
-0.878829
-0.879847
-0.880071
-0.879509
-0.878164
-0.876037
-0.873127
-0.869433
-0.864955
-0.859691
-0.853643
-0.84681
-0.839197
-0.830804
-0.821637
-0.8117
-0.800999
-0.789538
-0.777326
-0.764369
-0.750676
-0.736255
-0.721114
-0.705264
-0.688714
-0.671475
-0.653557
-0.634973
-0.615732
-0.595849
-0.575335
-0.554204
-0.532468
-0.510142
-0.48724
-0.463777
-0.439768
-0.415227
-0.390172
-0.364617
-0.33858
-0.312077
-0.285126
-0.257744
-0.229949
-0.201759
-0.173194
-0.144271
-0.11501
-0.08543
-0.0555514
-0.0253939
0.00502211
0.0356761
0.0665473
0.0976146
0.128857
0.160252
0.191779
0.223416
0.25514
0.286929
0.318762
0.350615
0.382466
0.414292
0.446071
0.47778
0.509394
0.540892
0.572249
0.603443
0.634451
0.665248
0.695811
0.726119
0.756146
0.785871
0.815269
0.844319
0.872998
0.901282
0.92915
0.956579
0.983547
1.01003
1.03601
1.06147
1.08638
1.11073
1.13448
1.15763
1.18015
1.20203
1.22325
1.24378
1.26361
1.28273
1.30111
1.31875
1.33562
1.35171
1.367
1.3815
1.39517
1.40801
1.42001
1.43116
1.44146
1.45088
1.45943
1.46711
1.4739
1.47982
1.48485
1.48901
1.49229
1.49469
1.49624
1.49692
1.49675
1.49572
1.49384
1.49107
1.48741
-0.874159
-0.877792
-0.880553
-0.882468
-0.883556
-0.883831
-0.883304
-0.881978
-0.879859
-0.876948
-0.873245
-0.868753
-0.86347
-0.8574
-0.850543
-0.842903
-0.834482
-0.825285
-0.815316
-0.804581
-0.793086
-0.780838
-0.767843
-0.754111
-0.739648
-0.724465
-0.70857
-0.691974
-0.674686
-0.656718
-0.638082
-0.618788
-0.598849
-0.578277
-0.557086
-0.535289
-0.512901
-0.489934
-0.466404
-0.442326
-0.417715
-0.392588
-0.366959
-0.340847
-0.314267
-0.287237
-0.259775
-0.231898
-0.203625
-0.174975
-0.145965
-0.116616
-0.0869475
-0.0569783
-0.026729
0.00378015
0.0345285
0.0654953
0.0966593
0.127999
0.159493
0.19112
0.222858
0.254684
0.286576
0.318511
0.350468
0.382424
0.414356
0.44624
0.478055
0.509776
0.54138
0.572844
0.604145
0.635259
0.666163
0.696833
0.727246
0.75738
0.78721
0.816714
0.845868
0.87465
0.903038
0.931008
0.958538
0.985606
1.01219
1.03827
1.06382
1.08883
1.11326
1.13711
1.16035
1.18296
1.20492
1.22622
1.24683
1.26674
1.28593
1.30439
1.32209
1.33903
1.35519
1.37055
1.3851
1.39883
1.41173
1.42378
1.43498
1.44532
1.45478
1.46338
1.47109
1.47791
1.48385
1.48891
1.49307
1.49635
1.49876
1.50028
1.50093
1.5007
1.4996
1.49761
1.49474
1.49096
-0.878379
-0.882107
-0.884955
-0.886945
-0.888094
-0.888415
-0.88792
-0.886614
-0.884504
-0.881592
-0.877882
-0.873375
-0.868074
-0.86198
-0.855096
-0.847426
-0.838973
-0.829741
-0.819734
-0.80896
-0.797423
-0.785131
-0.77209
-0.758309
-0.743795
-0.728559
-0.712609
-0.695955
-0.678608
-0.660578
-0.641876
-0.622515
-0.602507
-0.581864
-0.5606
-0.538727
-0.51626
-0.493213
-0.4696
-0.445438
-0.42074
-0.395523
-0.369804
-0.343598
-0.316924
-0.289797
-0.262236
-0.234258
-0.205883
-0.177128
-0.148012
-0.118555
-0.0887769
-0.0586966
-0.0283346
0.00228875
0.0331528
0.0642365
0.0955189
0.126978
0.158594
0.190342
0.222203
0.254153
0.28617
0.318232
0.350315
0.382398
0.414458
0.446471
0.478415
0.510265
0.541998
0.573592
0.605023
0.636266
0.6673
0.6981
0.728642
0.758904
0.788862
0.818493
0.847774
0.876682
0.905194
0.933287
0.960939
0.988128
1.01483
1.04103
1.0667
1.09181
1.11636
1.14032
1.16366
1.18638
1.20845
1.22984
1.25055
1.27056
1.28984
1.30838
1.32617
1.34319
1.35943
1.37486
1.38949
1.40328
1.41624
1.42836
1.43961
1.45
1.45952
1.46816
1.47591
1.48277
1.48873
1.49381
1.49799
1.50127
1.50366
1.50517
1.50578
1.5055
1.50434
1.50228
1.49931
1.49543
-0.883502
-0.887306
-0.890225
-0.892277
-0.893477
-0.893839
-0.893372
-0.892084
-0.889982
-0.887069
-0.883351
-0.878829
-0.873508
-0.867389
-0.860476
-0.852772
-0.844282
-0.835009
-0.82496
-0.814139
-0.802553
-0.790209
-0.777113
-0.763274
-0.748701
-0.733401
-0.717385
-0.700662
-0.683243
-0.665139
-0.64636
-0.626919
-0.606828
-0.5861
-0.564747
-0.542784
-0.520223
-0.49708
-0.473369
-0.449105
-0.424304
-0.398981
-0.373154
-0.346837
-0.320049
-0.292807
-0.265128
-0.237031
-0.208533
-0.179654
-0.150413
-0.120828
-0.0909194
-0.0607074
-0.0302118
0.000546807
0.0315478
0.0627701
0.0941925
0.125794
0.157552
0.189445
0.221451
0.253547
0.285712
0.317922
0.350156
0.382389
0.4146
0.446764
0.478859
0.510862
0.542748
0.574495
0.606078
0.637474
0.66866
0.699612
0.730306
0.760719
0.790828
0.820608
0.850038
0.879093
0.907751
0.935989
0.963785
0.991115
1.01796
1.04429
1.0701
1.09535
1.12003
1.14411
1.16758
1.19042
1.21261
1.23412
1.25495
1.27506
1.29445
1.3131
1.33099
1.3481
1.36443
1.37995
1.39465
1.40853
1.42157
1.43375
1.44507
1.45552
1.46509
1.47378
1.48157
1.48847
1.49447
1.49956
1.50376
1.50704
1.50943
1.51092
1.5115
1.51118
1.50996
1.50783
1.5048
1.50084
-0.889527
-0.893392
-0.896369
-0.898473
-0.899718
-0.900114
-0.899671
-0.898399
-0.896303
-0.893389
-0.889661
-0.885123
-0.879779
-0.873632
-0.866686
-0.858945
-0.850413
-0.841095
-0.830997
-0.820123
-0.808481
-0.796076
-0.782917
-0.769012
-0.754368
-0.738995
-0.722901
-0.706099
-0.688596
-0.670405
-0.651536
-0.632003
-0.611815
-0.590988
-0.569532
-0.547463
-0.524794
-0.501539
-0.477713
-0.453332
-0.42841
-0.402964
-0.37701
-0.350565
-0.323646
-0.29627
-0.268454
-0.240218
-0.211579
-0.182556
-0.153169
-0.123436
-0.0933769
-0.0630123
-0.0323622
-0.00144704
0.0297123
0.0610947
0.092679
0.124444
0.156367
0.188426
0.2206
0.252866
0.285201
0.317583
0.349989
0.382395
0.41478
0.447119
0.479389
0.511567
0.543629
0.575551
0.60731
0.638882
0.670243
0.70137
0.732239
0.762826
0.793107
0.82306
0.85266
0.881885
0.910711
0.939116
0.967076
0.994569
1.02157
1.04807
1.07403
1.09943
1.12426
1.14849
1.17211
1.19509
1.21741
1.23906
1.26001
1.28025
1.29977
1.31853
1.33653
1.35376
1.37019
1.38581
1.40061
1.41458
1.4277
1.43996
1.45136
1.46187
1.47151
1.48025
1.48809
1.49503
1.50106
1.50618
1.51039
1.51369
1.51607
1.51754
1.51809
1.51774
1.51647
1.51429
1.51119
1.50718
-0.896453
-0.90037
-0.903396
-0.905544
-0.906826
-0.907251
-0.90683
-0.905569
-0.903477
-0.900559
-0.896819
-0.892263
-0.886894
-0.880716
-0.873734
-0.865951
-0.857373
-0.848004
-0.83785
-0.826916
-0.81521
-0.802738
-0.789506
-0.775525
-0.760801
-0.745344
-0.729163
-0.712269
-0.694671
-0.676381
-0.65741
-0.637769
-0.617472
-0.596531
-0.574958
-0.552768
-0.529975
-0.506593
-0.482636
-0.458121
-0.433062
-0.407475
-0.381378
-0.354786
-0.327717
-0.300188
-0.272217
-0.243823
-0.215023
-0.185836
-0.156283
-0.126381
-0.0961511
-0.0656131
-0.0347874
-0.00369444
0.0276448
0.0592091
0.0909772
0.122927
0.155038
0.187286
0.219651
0.252108
0.284637
0.317213
0.349814
0.382417
0.414998
0.447535
0.480004
0.51238
0.544641
0.576762
0.60872
0.640491
0.67205
0.703375
0.734441
0.765225
0.795702
0.825849
0.855642
0.885059
0.914075
0.942668
0.970814
0.998491
1.02568
1.05235
1.07848
1.10406
1.12906
1.15346
1.17724
1.20038
1.22286
1.24466
1.26576
1.28614
1.30579
1.32469
1.34282
1.36017
1.37672
1.39245
1.40736
1.42143
1.43464
1.44699
1.45847
1.46906
1.47876
1.48757
1.49546
1.50245
1.50852
1.51367
1.5179
1.5212
1.52358
1.52504
1.52558
1.52519
1.52388
1.52166
1.51851
1.51444
-0.904279
-0.908241
-0.911311
-0.913497
-0.914811
-0.915261
-0.914856
-0.913605
-0.911514
-0.908588
-0.904835
-0.900257
-0.89486
-0.888648
-0.881625
-0.873796
-0.865167
-0.855741
-0.845525
-0.834525
-0.822747
-0.810198
-0.796886
-0.782819
-0.768005
-0.752454
-0.736174
-0.719177
-0.701472
-0.68307
-0.663984
-0.644224
-0.623803
-0.602733
-0.581029
-0.558704
-0.535771
-0.512245
-0.488141
-0.463475
-0.438262
-0.412517
-0.386258
-0.359502
-0.332265
-0.304565
-0.276419
-0.247847
-0.218867
-0.189497
-0.159757
-0.129666
-0.0992444
-0.0685121
-0.0374895
-0.00619741
0.0253433
0.0571113
0.0890852
0.121243
0.153563
0.186023
0.218601
0.251273
0.284017
0.316811
0.34963
0.382453
0.415255
0.448012
0.480702
0.513301
0.545784
0.578127
0.610307
0.6423
0.674082
0.705627
0.736914
0.767917
0.798612
0.828976
0.858985
0.888616
0.917844
0.946647
0.975001
1.00288
1.03027
1.05714
1.08348
1.10925
1.13444
1.15902
1.18298
1.2063
1.22895
1.25092
1.27219
1.29273
1.31253
1.33158
1.34985
1.36734
1.38402
1.39988
1.4149
1.42908
1.4424
1.45485
1.46642
1.4771
1.48687
1.49574
1.5037
1.51074
1.51685
1.52203
1.52628
1.5296
1.53199
1.53344
1.53396
1.53354
1.5322
1.52993
1.52674
1.52262
-0.913005
-0.91701
-0.920118
-0.922338
-0.92368
-0.924151
-0.92376
-0.922515
-0.920421
-0.917487
-0.913716
-0.909113
-0.903685
-0.897434
-0.890367
-0.882487
-0.873801
-0.864312
-0.854028
-0.842953
-0.831096
-0.818463
-0.805061
-0.790899
-0.775986
-0.76033
-0.743941
-0.726829
-0.709005
-0.690479
-0.671264
-0.65137
-0.630812
-0.6096
-0.58775
-0.565273
-0.542185
-0.5185
-0.494233
-0.469399
-0.444014
-0.418095
-0.391657
-0.364717
-0.337293
-0.309403
-0.281064
-0.252295
-0.223114
-0.193541
-0.163594
-0.133294
-0.10266
-0.0717119
-0.0404712
-0.00895833
0.0228056
0.0547993
0.087001
0.119389
0.151941
0.184635
0.217449
0.250358
0.283342
0.316376
0.349437
0.382502
0.415548
0.44855
0.481485
0.514329
0.547057
0.579647
0.612073
0.644311
0.676337
0.708127
0.739657
0.770903
0.801839
0.832443
0.862691
0.892558
0.92202
0.951055
0.979639
1.00775
1.03536
1.06245
1.089
1.11499
1.14039
1.16518
1.18934
1.21285
1.2357
1.25785
1.2793
1.30002
1.31999
1.3392
1.35763
1.37527
1.39209
1.40809
1.42325
1.43755
1.45098
1.46354
1.47521
1.48598
1.49584
1.50479
1.51281
1.5199
1.52606
1.53128
1.53556
1.53889
1.54129
1.54273
1.54324
1.54281
1.54143
1.53913
1.53589
1.53173
-0.922633
-0.926678
-0.929822
-0.932074
-0.933441
-0.93393
-0.93355
-0.932307
-0.930209
-0.927262
-0.92347
-0.91884
-0.913376
-0.907083
-0.899967
-0.892031
-0.883282
-0.873724
-0.863365
-0.852209
-0.840265
-0.827538
-0.814038
-0.799772
-0.784749
-0.768977
-0.752467
-0.735229
-0.717274
-0.698612
-0.679255
-0.659215
-0.638505
-0.617137
-0.595125
-0.572482
-0.549223
-0.525363
-0.500916
-0.475898
-0.450324
-0.424212
-0.397576
-0.370436
-0.342807
-0.314707
-0.286156
-0.25717
-0.227769
-0.197972
-0.167798
-0.137267
-0.1064
-0.0752154
-0.0437352
-0.0119799
0.0200291
0.0522704
0.0847223
0.117363
0.15017
0.183121
0.216193
0.249363
0.282609
0.315906
0.349233
0.382564
0.415877
0.449147
0.482351
0.515463
0.548461
0.58132
0.614015
0.646522
0.678817
0.710875
0.742672
0.774183
0.805385
0.836252
0.86676
0.896886
0.926605
0.955894
0.98473
1.01309
1.04094
1.06828
1.09507
1.12128
1.14691
1.17193
1.19631
1.22004
1.24309
1.26545
1.2871
1.30801
1.32817
1.34756
1.36616
1.38397
1.40095
1.4171
1.4324
1.44683
1.4604
1.47307
1.48485
1.49572
1.50567
1.5147
1.5228
1.52995
1.53616
1.54142
1.54573
1.54909
1.55149
1.55294
1.55344
1.55298
1.55158
1.54924
1.54596
1.54176
-0.933164
-0.93725
-0.94043
-0.942711
-0.9441
-0.944605
-0.944233
-0.942991
-0.940885
-0.937922
-0.934107
-0.929446
-0.923942
-0.917603
-0.910432
-0.902435
-0.893617
-0.883985
-0.873543
-0.862299
-0.850259
-0.837432
-0.823823
-0.809443
-0.7943
-0.778403
-0.761761
-0.744385
-0.726286
-0.707475
-0.687963
-0.667763
-0.646887
-0.625348
-0.60316
-0.580336
-0.55689
-0.532838
-0.508195
-0.482975
-0.457196
-0.430873
-0.404022
-0.376662
-0.348809
-0.320482
-0.291698
-0.262476
-0.232835
-0.202794
-0.172372
-0.14159
-0.110468
-0.079026
-0.0472847
-0.0152654
0.0170107
0.0495219
0.0822463
0.115162
0.148246
0.181477
0.214831
0.248285
0.281816
0.315401
0.349016
0.382637
0.41624
0.449802
0.483298
0.516704
0.549995
0.583147
0.616135
0.648935
0.681522
0.713872
0.745959
0.777759
0.809248
0.840402
0.871194
0.901602
0.931601
0.961167
0.990276
1.0189
1.04703
1.07462
1.10167
1.12815
1.15402
1.17928
1.20391
1.22787
1.25115
1.27373
1.29559
1.31672
1.33708
1.35666
1.37546
1.39344
1.41059
1.4269
1.44236
1.45694
1.47065
1.48345
1.49535
1.50633
1.51638
1.5255
1.53367
1.54089
1.54716
1.55247
1.55681
1.5602
1.56261
1.56406
1.56455
1.56408
1.56266
1.56028
1.55697
1.55271
-0.944604
-0.948731
-0.951946
-0.954256
-0.955667
-0.956186
-0.95582
-0.954575
-0.952459
-0.949477
-0.945635
-0.940939
-0.935392
-0.929001
-0.921771
-0.913707
-0.904815
-0.895101
-0.88457
-0.87323
-0.861087
-0.848149
-0.834424
-0.81992
-0.804647
-0.788613
-0.771828
-0.754303
-0.736048
-0.717075
-0.697395
-0.677021
-0.655965
-0.634241
-0.611861
-0.58884
-0.565192
-0.540932
-0.516076
-0.490638
-0.464635
-0.438083
-0.411
-0.383401
-0.355306
-0.326731
-0.297695
-0.268217
-0.238316
-0.208011
-0.177321
-0.146267
-0.114869
-0.0831476
-0.0511236
-0.0188182
0.0137471
0.0465505
0.07957
0.112783
0.146168
0.179701
0.21336
0.247121
0.280961
0.314857
0.348784
0.382719
0.416637
0.450514
0.484326
0.518049
0.551657
0.585126
0.618432
0.651549
0.684452
0.717117
0.749518
0.781632
0.813432
0.844895
0.875995
0.906708
0.937009
0.966874
0.996279
1.0252
1.05361
1.08149
1.10882
1.13557
1.16172
1.18725
1.21213
1.23635
1.25987
1.2827
1.30479
1.32614
1.34672
1.36652
1.38551
1.40369
1.42103
1.43752
1.45314
1.46789
1.48174
1.49468
1.50671
1.51781
1.52797
1.53718
1.54544
1.55274
1.55907
1.56443
1.56881
1.57222
1.57466
1.57612
1.5766
1.57612
1.57467
1.57226
1.5689
1.5646
-0.956958
-0.961127
-0.964378
-0.966717
-0.968148
-0.96868
-0.968318
-0.967069
-0.96494
-0.961936
-0.958064
-0.953328
-0.947734
-0.941287
-0.933993
-0.925857
-0.916884
-0.907081
-0.896455
-0.88501
-0.872756
-0.8597
-0.845848
-0.831211
-0.815797
-0.799615
-0.782676
-0.764989
-0.746566
-0.727418
-0.707557
-0.686995
-0.665745
-0.643821
-0.621234
-0.598001
-0.574135
-0.549651
-0.524564
-0.498891
-0.472647
-0.445849
-0.418514
-0.390659
-0.362302
-0.33346
-0.304153
-0.274399
-0.244218
-0.213627
-0.182649
-0.151302
-0.119607
-0.0875842
-0.0552556
-0.0226422
0.0102345
0.0433526
0.0766898
0.110224
0.143932
0.177791
0.211778
0.24587
0.280043
0.314273
0.348536
0.382808
0.417065
0.451282
0.485434
0.519498
0.553447
0.587258
0.620905
0.654363
0.687606
0.720611
0.75335
0.785801
0.817936
0.849732
0.881163
0.912205
0.942831
0.973019
1.00274
1.03198
1.0607
1.08889
1.11652
1.14357
1.17001
1.19582
1.22098
1.24547
1.26927
1.29235
1.31469
1.33629
1.3571
1.37713
1.39634
1.41473
1.43227
1.44895
1.46476
1.47967
1.49368
1.50678
1.51894
1.53017
1.54045
1.54976
1.55812
1.5655
1.5719
1.57731
1.58174
1.58518
1.58764
1.58911
1.58959
1.58909
1.58762
1.58518
1.58178
1.57743
-0.970231
-0.974445
-0.977733
-0.980101
-0.981552
-0.982096
-0.981736
-0.980481
-0.978337
-0.975309
-0.971402
-0.966624
-0.960978
-0.954471
-0.947107
-0.938893
-0.929833
-0.919935
-0.909205
-0.897649
-0.885275
-0.872091
-0.858104
-0.843323
-0.827758
-0.811418
-0.794312
-0.776452
-0.757849
-0.738513
-0.718457
-0.697694
-0.676235
-0.654095
-0.631287
-0.607826
-0.583725
-0.559
-0.533667
-0.507741
-0.481238
-0.454176
-0.426571
-0.39844
-0.369802
-0.340675
-0.311077
-0.281027
-0.250545
-0.219649
-0.18836
-0.156699
-0.124685
-0.0923405
-0.0596854
-0.0267417
0.00646887
0.0399242
0.073602
0.10748
0.141534
0.175743
0.210082
0.244527
0.279057
0.313645
0.348268
0.382902
0.417522
0.452103
0.48662
0.521049
0.555365
0.589541
0.623554
0.657377
0.690985
0.724353
0.757456
0.790267
0.822762
0.854915
0.886701
0.918094
0.94907
0.979604
1.00967
1.03924
1.0683
1.09682
1.12477
1.15214
1.17889
1.20501
1.23047
1.25525
1.27933
1.30269
1.32531
1.34716
1.36823
1.3885
1.40795
1.42657
1.44432
1.46121
1.47721
1.49231
1.50649
1.51975
1.53206
1.54343
1.55383
1.56326
1.57171
1.57918
1.58565
1.59113
1.59561
1.59909
1.60157
1.60304
1.60353
1.60302
1.60152
1.59905
1.5956
1.5912
-0.984432
-0.988693
-0.99202
-0.994417
-0.995889
-0.996443
-0.996085
-0.994822
-0.99266
-0.989604
-0.985661
-0.980836
-0.975134
-0.968561
-0.961123
-0.952824
-0.943672
-0.933672
-0.922831
-0.911156
-0.898653
-0.885332
-0.8712
-0.856266
-0.840539
-0.824029
-0.806746
-0.7887
-0.769904
-0.750367
-0.730103
-0.709124
-0.687443
-0.665073
-0.642028
-0.618322
-0.593971
-0.568989
-0.543391
-0.517195
-0.490416
-0.463071
-0.435178
-0.406753
-0.377815
-0.348382
-0.318473
-0.288107
-0.257303
-0.226081
-0.194462
-0.162465
-0.130111
-0.0974213
-0.0644176
-0.0311213
0.00244571
0.0362611
0.0703024
0.104547
0.138971
0.173553
0.208267
0.243091
0.278001
0.312972
0.347979
0.382999
0.418006
0.452975
0.487882
0.522701
0.557407
0.591974
0.626377
0.660591
0.694588
0.728345
0.761835
0.795032
0.82791
0.860445
0.89261
0.924379
0.955728
0.986631
1.01706
1.047
1.07641
1.10528
1.13358
1.16128
1.18837
1.21482
1.2406
1.26569
1.29008
1.31374
1.33664
1.35878
1.38012
1.40065
1.42035
1.43921
1.4572
1.4743
1.49051
1.5058
1.52017
1.5336
1.54608
1.55759
1.56812
1.57767
1.58623
1.59379
1.60035
1.60589
1.61043
1.61395
1.61645
1.61794
1.61842
1.6179
1.61638
1.61388
1.61039
1.60592
-0.999569
-1.00388
-1.00725
-1.00968
-1.01117
-1.01173
-1.01137
-1.0101
-1.00792
-1.00483
-1.00085
-0.995975
-0.990212
-0.983569
-0.976051
-0.967663
-0.958411
-0.948302
-0.937342
-0.925539
-0.9129
-0.899433
-0.885146
-0.870048
-0.854149
-0.837458
-0.819986
-0.801742
-0.78274
-0.762989
-0.742503
-0.721294
-0.699376
-0.67676
-0.653463
-0.629497
-0.604879
-0.579623
-0.553745
-0.527261
-0.500187
-0.472541
-0.444341
-0.415603
-0.386345
-0.356587
-0.326347
-0.295644
-0.264499
-0.23293
-0.200958
-0.168604
-0.135888
-0.102832
-0.0694574
-0.0357859
-0.00183975
0.0323587
0.0667867
0.101421
0.136239
0.171217
0.206331
0.241557
0.276871
0.312249
0.347666
0.383096
0.418515
0.453898
0.489219
0.524453
0.559574
0.594557
0.629375
0.664004
0.698416
0.732586
0.766487
0.800095
0.833382
0.866323
0.898891
0.931061
0.962806
0.994102
1.02492
1.05524
1.08504
1.11428
1.14295
1.17101
1.19846
1.22525
1.25138
1.2768
1.30152
1.32549
1.34871
1.37114
1.39277
1.41358
1.43355
1.45266
1.47089
1.48824
1.50467
1.52017
1.53474
1.54835
1.56099
1.57266
1.58334
1.59302
1.6017
1.60936
1.616
1.62162
1.62621
1.62977
1.6323
1.63381
1.6343
1.63376
1.63222
1.62968
1.62614
1.62162
-1.01565
-1.02002
-1.02343
-1.02589
-1.0274
-1.02797
-1.02762
-1.02633
-1.02413
-1.02101
-1.01698
-1.01205
-1.00622
-0.999506
-0.991902
-0.983418
-0.97406
-0.963835
-0.952749
-0.940811
-0.928026
-0.914404
-0.899952
-0.884681
-0.868598
-0.851715
-0.834041
-0.815588
-0.796367
-0.776389
-0.755667
-0.734214
-0.712043
-0.689168
-0.665602
-0.64136
-0.616458
-0.590911
-0.564735
-0.537945
-0.51056
-0.482594
-0.454068
-0.424997
-0.395401
-0.365298
-0.334706
-0.303647
-0.272138
-0.240201
-0.207855
-0.175122
-0.142023
-0.108578
-0.0748102
-0.0407409
-0.00639266
0.028212
0.0630501
0.0980985
0.133334
0.168732
0.20427
0.239922
0.275665
0.311474
0.347324
0.38319
0.419046
0.454867
0.490627
0.526301
0.561863
0.597287
0.632546
0.667615
0.702467
0.737075
0.771414
0.805457
0.839178
0.872549
0.905546
0.938141
0.970308
1.00202
1.03325
1.06398
1.09418
1.12382
1.15288
1.18133
1.20915
1.23632
1.26281
1.28859
1.31365
1.33796
1.3615
1.38425
1.40619
1.4273
1.44755
1.46694
1.48543
1.50302
1.51969
1.53542
1.55019
1.564
1.57683
1.58866
1.59949
1.60931
1.61811
1.62588
1.63261
1.63831
1.64296
1.64657
1.64914
1.65066
1.65115
1.65061
1.64904
1.64646
1.64287
1.63829
-1.03269
-1.03711
-1.04057
-1.04306
-1.0446
-1.04518
-1.04482
-1.04352
-1.04129
-1.03814
-1.03407
-1.02908
-1.02318
-1.01638
-1.00869
-1.0001
-0.990631
-0.980283
-0.969064
-0.956981
-0.944042
-0.930255
-0.915629
-0.900174
-0.883897
-0.86681
-0.848923
-0.830248
-0.810794
-0.790576
-0.769604
-0.747893
-0.725454
-0.702303
-0.678454
-0.65392
-0.628718
-0.602863
-0.576371
-0.549258
-0.521541
-0.493238
-0.464366
-0.434944
-0.404989
-0.374521
-0.343558
-0.312121
-0.280229
-0.247902
-0.215161
-0.182027
-0.148522
-0.114666
-0.080482
-0.045992
-0.0112185
0.0238157
0.0590874
0.0945734
0.13025
0.166093
0.202078
0.238182
0.274379
0.310644
0.346952
0.383278
0.419596
0.455881
0.492106
0.528246
0.564274
0.600164
0.635889
0.671424
0.706741
0.741814
0.776615
0.811119
0.845299
0.879126
0.912576
0.945621