# vtk DataFile Version 2.0
Lid-driven cavity
ASCII
DATASET STRUCTURED_POINTS
DIMENSIONS 128 128 1
ORIGIN 0.00390625 0.00390625 0
SPACING 0.0078125 0.0078125 1
POINT_DATA 16384
SCALARS pressure double 1
LOOKUP_TABLE default
0.0346765
0.0330402
0.0291288
0.0238759
0.0181312
0.0125531
0.00762468
0.00369242
0.00100154
-0.000276843
-2.57381e-05
0.00183229
0.00534569
0.0105418
0.0174325
0.0260187
0.0362933
0.0482439
0.0618544
0.077106
0.093979
0.112452
0.132506
0.154117
0.177267
0.201934
0.228098
0.255741
0.284842
0.315382
0.347343
0.380706
0.415451
0.45156
0.489013
0.527791
0.567874
0.60924
0.65187
0.695741
0.74083
0.787115
0.834572
0.883175
0.932898
0.983716
1.0356
1.08852
1.14245
1.19735
1.2532
1.30996
1.36759
1.42607
1.48535
1.54539
1.60616
1.66761
1.72971
1.79241
1.85566
1.91942
1.98365
2.04829
2.11329
2.17861
2.24419
2.30998
2.37593
2.44197
2.50807
2.57414
2.64015
2.70603
2.77171
2.83714
2.90226
2.96699
3.03129
3.09507
3.15829
3.22087
3.28275
3.34386
3.40414
3.46352
3.52193
3.57932
3.63561
3.69074
3.74464
3.79726
3.84854
3.8984
3.94679
3.99365
4.03892
4.08255
4.12448
4.16466
4.20303
4.23955
4.27417
4.30684
4.33752
4.36617
4.39275
4.41724
4.4396
4.45979
4.47782
4.49365
4.50728
4.51871
4.52795
4.53502
4.53996
4.54283
4.5437
4.54269
4.53997
4.53574
4.53032
4.5241
4.51765
4.51171
4.50727
4.50539
0.0362987
0.0346649
0.0314063
0.0271785
0.0225928
0.0181649
0.0143044
0.0113254
0.00946337
0.00889133
0.00973422
0.01208
0.0159883
0.0214978
0.0286308
0.0373977
0.0478001
0.0598332
0.0734873
0.0887496
0.105605
0.124037
0.144027
0.165559
0.188613
0.213172
0.239216
0.266727
0.295688
0.32608
0.357884
0.391082
0.425655
0.461586
0.498854
0.53744
0.577324
0.618486
0.660905
0.704558
0.749423
0.795478
0.842698
0.891057
0.940531
0.991092
1.04271
1.09536
1.14901
1.20364
1.25919
1.31566
1.37299
1.43115
1.49012
1.54984
1.61028
1.6714
1.73316
1.79551
1.85841
1.92181
1.98567
2.04994
2.11457
2.17951
2.24471
2.31011
2.37566
2.44131
2.507
2.57268
2.63828
2.70374
2.76901
2.83403
2.89873
2.96304
3.02692
3.09029
3.15309
3.21525
3.27671
3.33741
3.39727
3.45624
3.51425
3.57124
3.62713
3.68187
3.7354
3.78764
3.83855
3.88805
3.93609
3.98262
4.02756
4.07088
4.11251
4.1524
4.19051
4.22678
4.26117
4.29364
4.32415
4.35265
4.37912
4.40352
4.42583
4.44603
4.46411
4.48004
4.49384
4.50551
4.51506
4.52253
4.52796
4.53143
4.53302
4.53287
4.53113
4.52802
4.52384
4.51895
4.51383
4.50908
4.50539
4.50352
0.0402097
0.0379189
0.0346551
0.0308405
0.0268976
0.0232096
0.0201022
0.0178403
0.0166331
0.0166417
0.0179877
0.0207607
0.0250249
0.0308247
0.038189
0.0471347
0.0576696
0.0697944
0.0835047
0.0987925
0.115647
0.134054
0.154001
0.17547
0.198448
0.222916
0.248858
0.276257
0.305095
0.335356
0.367022
0.400074
0.434495
0.470266
0.507368
0.545783
0.585489
0.626468
0.668697
0.712155
0.75682
0.802669
0.849676
0.897818
0.947069
0.997401
1.04879
1.1012
1.15461
1.20898
1.26428
1.32048
1.37754
1.43544
1.49412
1.55356
1.61372
1.67454
1.736
1.79805
1.86064
1.92374
1.98728
2.05123
2.11554
2.18015
2.24501
2.31008
2.3753
2.4406
2.50595
2.57128
2.63653
2.70164
2.76656
2.83122
2.89557
2.95953
3.02305
3.08606
3.14851
3.21032
3.27143
3.33177
3.39129
3.44992
3.50759
3.56423
3.6198
3.67421
3.72741
3.77934
3.82994
3.87914
3.9269
3.97314
4.01781
4.06087
4.10225
4.14191
4.1798
4.21587
4.25008
4.28239
4.31275
4.34114
4.36753
4.39187
4.41416
4.43438
4.45252
4.46856
4.48252
4.4944
4.50423
4.51206
4.51792
4.5219
4.52409
4.52462
4.52364
4.52137
4.51806
4.51403
4.50965
4.50539
4.5017
4.49908
0.0454764
0.0421477
0.0384541
0.0346293
0.0309446
0.0276691
0.0250477
0.0232917
0.022576
0.0230417
0.0247992
0.0279333
0.0325074
0.0385673
0.0461448
0.0552604
0.0659259
0.078146
0.0919203
0.107244
0.12411
0.142507
0.162425
0.183849
0.206766
0.23116
0.257017
0.284321
0.313055
0.343204
0.374749
0.407673
0.44196
0.477591
0.514547
0.55281
0.59236
0.633176
0.675238
0.718524
0.763012
0.808678
0.855499
0.90345
0.952505
1.00264
1.05382
1.10602
1.15921
1.21336
1.26844
1.32442
1.38125
1.43891
1.49736
1.55655
1.61646
1.67704
1.73824
1.80003
1.86236
1.92519
1.98847
2.05215
2.11618
2.18051
2.2451
2.30988
2.37481
2.43984
2.50489
2.56993
2.63489
2.69972
2.76434
2.82871
2.89276
2.95644
3.01966
3.08239
3.14454
3.20606
3.26688
3.32694
3.38618
3.44452
3.50191
3.55829
3.61358
3.66773
3.72067
3.77235
3.82269
3.87166
3.91917
3.96519
4.00965
4.05249
4.09368
4.13316
4.17087
4.20679
4.24085
4.27304
4.3033
4.3316
4.35792
4.38224
4.40453
4.42478
4.44297
4.45912
4.47323
4.48531
4.49539
4.50351
4.50974
4.51413
4.5168
4.51785
4.51744
4.51575
4.513
4.50944
4.50537
4.5011
4.49694
4.49316
0.0512542
0.0467432
0.0423826
0.0382746
0.0345767
0.0314656
0.0291157
0.0276868
0.0273182
0.0281266
0.0302073
0.033636
0.0384712
0.0447568
0.0525246
0.0617964
0.0725861
0.0849008
0.0987426
0.114109
0.130996
0.149395
0.169296
0.190688
0.21356
0.237896
0.263685
0.29091
0.319557
0.349609
0.381052
0.413867
0.448039
0.483548
0.520378
0.55851
0.597923
0.638598
0.680515
0.723652
0.767986
0.813495
0.860155
0.907941
0.956827
1.00679
1.05779
1.10981
1.16282
1.21679
1.27168
1.32746
1.3841
1.44156
1.49981
1.5588
1.6185
1.67887
1.73986
1.80144
1.86355
1.92616
1.98922
2.05268
2.11649
2.18059
2.24495
2.30951
2.37421
2.439
2.50383
2.56864
2.63336
2.69795
2.76235
2.82649
2.89031
2.95375
3.01674
3.07924
3.14116
3.20246
3.26305
3.32289
3.38191
3.44003
3.49721
3.55337
3.60845
3.6624
3.71514
3.76662
3.81677
3.86555
3.91289
3.95873
4.00302
4.04571
4.08675
4.12609
4.16368
4.19947
4.23344
4.26553
4.29572
4.32397
4.35026
4.37456
4.39686
4.41715
4.43541
4.45166
4.4659
4.47815
4.48845
4.49682
4.50334
4.50806
4.51109
4.51252
4.5125
4.51117
4.50873
4.50536
4.50128
4.49671
4.49181
4.48672
0.056887
0.0511891
0.0460551
0.041504
0.0376126
0.0344871
0.0322439
0.0309978
0.0308538
0.0319044
0.0342276
0.0378876
0.0429355
0.0494111
0.057344
0.0667554
0.0776595
0.0900646
0.103974
0.119388
0.136302
0.154711
0.174607
0.19598
0.218819
0.243112
0.268847
0.296009
0.324585
0.354559
0.385916
0.41864
0.452715
0.488122
0.524846
0.562866
0.602164
0.64272
0.684515
0.727525
0.77173
0.817107
0.863631
0.911279
0.960024
1.00984
1.0607
1.11257
1.16543
1.21924
1.27398
1.3296
1.38608
1.44338
1.50147
1.56029
1.61983
1.68003
1.74085
1.80226
1.86421
1.92665
1.98953
2.05281
2.11645
2.18038
2.24457
2.30895
2.37347
2.43809
2.50274
2.56737
2.63193
2.69634
2.76056
2.82453
2.88818
2.95145
3.01428
3.0766
3.13836
3.19949
3.25992
3.3196
3.37846
3.43643
3.49345
3.54946
3.60439
3.65819
3.71079
3.76213
3.81215
3.8608
3.90801
3.95373
3.99791
4.04049
4.08143
4.12067
4.15817
4.19389
4.22779
4.25983
4.28998
4.3182
4.34448
4.36879
4.39111
4.41144
4.42978
4.44612
4.46048
4.47288
4.48334
4.49192
4.49866
4.50363
4.50692
4.50861
4.50883
4.5077
4.50536
4.50198
4.49769
4.49262
4.48688
4.48048
0.0618888
0.055071
0.0491396
0.0440645
0.0398686
0.0366063
0.0343489
0.0331733
0.0331547
0.0343623
0.0368571
0.0406909
0.0459061
0.0525367
0.0606088
0.0701416
0.0811485
0.0936376
0.107613
0.123076
0.140022
0.158449
0.178348
0.199712
0.222531
0.246794
0.272489
0.299603
0.328124
0.358036
0.389325
0.421975
0.455971
0.491296
0.527932
0.565862
0.605066
0.645525
0.687219
0.730127
0.774227
0.819496
0.865911
0.913448
0.962079
1.01178
1.06252
1.11428
1.16702
1.22071
1.27533
1.33083
1.38719
1.44436
1.50232
1.56102
1.62043
1.68051
1.74121
1.80249
1.86431
1.92662
1.98938
2.05254
2.11605
2.17986
2.24392
2.30818
2.37259
2.43708
2.50161
2.56613
2.63056
2.69486
2.75897
2.82282
2.88636
2.94952
3.01224
3.07446
3.13611
3.19714
3.25747
3.31705
3.3758
3.43368
3.49061
3.54652
3.60137
3.65508
3.70759
3.75885
3.80879
3.85736
3.9045
3.95015
3.99426
4.03678
4.07766
4.11686
4.15431
4.19
4.22386
4.25588
4.28602
4.31424
4.34053
4.36486
4.38722
4.40761
4.42601
4.44244
4.4569
4.46943
4.48003
4.48877
4.49567
4.50082
4.50427
4.50612
4.50646
4.50539
4.50303
4.49948
4.49485
4.48921
4.4826
4.47499
0.0659046
0.0580652
0.0513603
0.0457329
0.0411713
0.0376938
0.0353373
0.0341485
0.0341773
0.0354725
0.0380789
0.0420361
0.0473775
0.0541306
0.0623169
0.0719529
0.08305
0.0956156
0.109654
0.125165
0.142147
0.160597
0.180508
0.201873
0.224682
0.248927
0.274596
0.301676
0.330157
0.360023
0.391261
0.423855
0.457791
0.493052
0.529621
0.567481
0.606612
0.646996
0.688613
0.731442
0.775461
0.820649
0.866981
0.914433
0.96298
1.0126
1.06325
1.11492
1.16758
1.22118
1.27571
1.33112
1.3874
1.44449
1.50236
1.56098
1.6203
1.6803
1.74091
1.80211
1.86385
1.92609
1.98877
2.05186
2.11529
2.17903
2.24302
2.30721
2.37154
2.43597
2.50044
2.56489
2.62927
2.69351
2.75756
2.82136
2.88484
2.94795
3.01062
3.07279
3.1344
3.19538
3.25568
3.31521
3.37393
3.43177
3.48866
3.54455
3.59936
3.65304
3.70552
3.75676
3.80667
3.85522
3.90233
3.94797
3.99206
4.03457
4.07543
4.11462
4.15207
4.18775
4.22162
4.25365
4.2838
4.31204
4.33836
4.36273
4.38514
4.40559
4.42406
4.44057
4.45513
4.46775
4.47847
4.48732
4.49434
4.4996
4.50315
4.50507
4.50544
4.50433
4.50184
4.49805
4.49301
4.48677
4.47932
4.47062
0.068676
0.0599224
0.0524931
0.0463181
0.0413646
0.0376259
0.035114
0.033852
0.0338693
0.0351971
0.037866
0.0419039
0.0473357
0.054182
0.0624595
0.0721811
0.083356
0.0959901
0.110087
0.125646
0.142666
0.161143
0.181072
0.202446
0.225257
0.249495
0.27515
0.302211
0.330666
0.360502
0.391706
0.424262
0.458156
0.493372
0.529894
0.567704
0.606784
0.647116
0.688679
0.731453
0.775417
0.820548
0.866823
0.914219
0.962709
1.01227
1.06287
1.11448
1.16708
1.22064
1.27511
1.33048
1.3867
1.44374
1.50157
1.56014
1.61942
1.67938
1.73996
1.80112
1.86283
1.92503
1.98768
2.05074
2.11415
2.17786
2.24183
2.306
2.37032
2.43474
2.4992
2.56365
2.62802
2.69226
2.75631
2.82012
2.88361
2.94672
3.00941
3.07159
3.13321
3.19421
3.25452
3.31408
3.37282
3.43068
3.4876
3.5435
3.59834
3.65205
3.70456
3.75582
3.80576
3.85433
3.90148
3.94714
3.99126
4.0338
4.0747
4.11391
4.1514
4.18712
4.22103
4.25309
4.28329
4.31158
4.33795
4.36237
4.38484
4.40535
4.4239
4.44048
4.45512
4.46783
4.47863
4.48756
4.49466
4.49998
4.50357
4.50549
4.50581
4.5046
4.50192
4.49782
4.49235
4.48551
4.4773
4.46764
0.0700139
0.0604515
0.0523585
0.0456601
0.0403111
0.0362887
0.0335868
0.0322109
0.0321738
0.0334922
0.0361844
0.0402682
0.0457601
0.0526742
0.0610223
0.0708136
0.0820547
0.0947495
0.1089
0.124506
0.141565
0.160074
0.180027
0.201418
0.22424
0.248482
0.274136
0.301191
0.329636
0.359457
0.390642
0.423178
0.457048
0.492239
0.528734
0.566515
0.605566
0.645867
0.6874
0.730143
0.774076
0.819178
0.865424
0.912791
0.961254
1.01079
1.06136
1.11295
1.16553
1.21907
1.27352
1.32887
1.38508
1.44212
1.49993
1.5585
1.61779
1.67774
1.73832
1.7995
1.86121
1.92343
1.9861
2.04918
2.11261
2.17636
2.24036
2.30457
2.36893
2.43339
2.49789
2.56238
2.62681
2.69111
2.75522
2.81908
2.88264
2.94583
3.00858
3.07083
3.13253
3.19361
3.25399
3.31363
3.37245
3.43039
3.48739
3.54338
3.5983
3.65208
3.70468
3.75602
3.80604
3.85469
3.90191
3.94765
3.99185
4.03446
4.07543
4.11472
4.15228
4.18807
4.22204
4.25418
4.28444
4.3128
4.33924
4.36374
4.38628
4.40687
4.42548
4.44214
4.45685
4.46962
4.48049
4.48947
4.49661
4.50195
4.50553
4.50742
4.50765
4.50628
4.50336
4.49894
4.49302
4.48562
4.47671
4.46622
0.0697794
0.0595062
0.0508134
0.0436261
0.0378928
0.0335804
0.03067
0.0291541
0.0290328
0.0303109
0.0329964
0.0370982
0.0426253
0.049586
0.0579872
0.0678342
0.079131
0.0918794
0.10608
0.121731
0.138831
0.157375
0.177358
0.198774
0.221615
0.245872
0.271537
0.298599
0.327047
0.35687
0.388054
0.420585
0.454451
0.489636
0.526123
0.563897
0.60294
0.643234
0.68476
0.727497
0.771425
0.816523
0.862767
0.910133
0.958598
1.00814
1.05872
1.11032
1.16291
1.21646
1.27093
1.3263
1.38254
1.4396
1.49745
1.55606
1.61538
1.67537
1.73601
1.79723
1.85901
1.92128
1.98402
2.04717
2.11068
2.1745
2.23859
2.30288
2.36733
2.43189
2.4965
2.5611
2.62563
2.69004
2.75427
2.81825
2.88193
2.94524
3.00813
3.07051
3.13234
3.19355
3.25407
3.31385
3.37281
3.43088
3.48802
3.54415
3.59921
3.65313
3.70586
3.75733
3.80749
3.85627
3.90362
3.94948
3.9938
4.03653
4.07761
4.11701
4.15468
4.19057
4.22465
4.25689
4.28724
4.3157
4.34223
4.36681
4.38944
4.4101
4.42879
4.44552
4.46029
4.47312
4.48403
4.49305
4.5002
4.50553
4.50907
4.51087
4.51098
4.50943
4.50626
4.50149
4.49515
4.48723
4.47769
4.46648
0.0678702
0.0569744
0.047744
0.0401069
0.034009
0.0294108
0.026285
0.0246144
0.0243893
0.0256054
0.028262
0.0323604
0.0379031
0.044893
0.0533326
0.0632238
0.0745673
0.0873633
0.10161
0.117307
0.134448
0.153031
0.173049
0.194497
0.217366
0.241649
0.267337
0.294419
0.322885
0.352724
0.383922
0.416468
0.450347
0.485545
0.522046
0.559833
0.598891
0.6392
0.680743
0.723499
0.767448
0.812569
0.858838
0.906233
0.954729
1.0043
1.05492
1.10656
1.1592
1.2128
1.26733
1.32275
1.37905
1.43618
1.4941
1.55278
1.61219
1.67227
1.733
1.79432
1.85619
1.91858
1.98143
2.0447
2.10834
2.17229
2.23651
2.30094
2.36554
2.43025
2.49501
2.55977
2.62447
2.68905
2.75345
2.81761
2.88147
2.94497
3.00804
3.07061
3.13264
3.19404
3.25476
3.31472
3.37388
3.43215
3.48948
3.54581
3.60106
3.65517
3.70809
3.75975
3.81008
3.85904
3.90657
3.9526
3.99709
4.03998
4.08122
4.12077
4.15858
4.19461
4.22883
4.26119
4.29167
4.32024
4.34687
4.37156
4.39428
4.41503
4.4338
4.4506
4.46543
4.47831
4.48925
4.49828
4.50543
4.51073
4.5142
4.5159
4.51586
4.51411
4.51067
4.50558
4.49883
4.49043
4.48034
4.46851
0.0642108
0.05277
0.04306
0.035013
0.0285745
0.0237015
0.0203611
0.0185294
0.0181891
0.0193287
0.0219405
0.0260197
0.0315631
0.0385688
0.0470352
0.056961
0.0683443
0.081183
0.0954743
0.111215
0.1284
0.147025
0.167084
0.188571
0.211478
0.235797
0.261519
0.288634
0.317132
0.347003
0.378233
0.41081
0.444721
0.479951
0.516485
0.554308
0.593402
0.633751
0.675334
0.718134
0.76213
0.8073
0.853623
0.901075
0.949632
0.999269
1.04996
1.10168
1.15439
1.20807
1.26269
1.31821
1.37461
1.43184
1.48988
1.54868
1.6082
1.66842
1.72928
1.79074
1.85277
1.91531
1.97832
2.04176
2.10557
2.1697
2.23411
2.29874
2.36354
2.42845
2.49342
2.5584
2.62332
2.68813
2.75276
2.81715
2.88125
2.94499
3.0083
3.07113
3.1334
3.19505
3.25602
3.31625
3.37565
3.43418
3.49176
3.54834
3.60383
3.65819
3.71135
3.76325
3.81382
3.86301
3.91076
3.95701
4.0017
4.0448
4.08624
4.12597
4.16397
4.20017
4.23455
4.26707
4.29769
4.3264
4.35316
4.37797
4.4008
4.42164
4.4405
4.45737
4.47226
4.48518
4.49615
4.50518
4.51231
4.51756
4.52095
4.52253
4.52233
4.52036
4.51667
4.51125
4.50413
4.49529
4.48472
4.47236
0.0587449
0.0468262
0.0366892
0.0282706
0.0215172
0.0163843
0.0128355
0.0108419
0.010381
0.0114355
0.0139921
0.0180408
0.023574
0.0305854
0.0390699
0.0490232
0.0604409
0.073319
0.087653
0.103438
0.120669
0.139341
0.159447
0.18098
0.203933
0.228298
0.254066
0.281228
0.309773
0.33969
0.370968
0.403594
0.437555
0.472837
0.509426
0.547305
0.586459
0.626869
0.668519
0.711388
0.755456
0.800704
0.847108
0.894646
0.943294
0.993027
1.04382
1.09564
1.14847
1.20227
1.25701
1.31267
1.3692
1.42658
1.48477
1.54373
1.60342
1.66381
1.72485
1.7865
1.84872
1.91147
1.97469
2.03834
2.10238
2.16674
2.23139
2.29626
2.36131
2.42648
2.49172
2.55697
2.62217
2.68726
2.75218
2.81687
2.88126
2.9453
3.00891
3.07205
3.13463
3.19659
3.25787
3.3184
3.37812
3.43696
3.49485
3.55173
3.60753
3.66219
3.71564
3.76783
3.81868
3.86815
3.91617
3.96268
4.00763
4.05097
4.09265
4.13261
4.17082
4.20723
4.2418
4.27451
4.3053
4.33417
4.36108
4.38602
4.40897
4.42993
4.44888
4.46582
4.48077
4.49373
4.50472
4.51375
4.52084
4.52603
4.52934
4.53079
4.53042
4.52824
4.52429
4.51858
4.5111
4.50187
4.49087
4.47805
0.0514303
0.0390912
0.0285736
0.0198192
0.0127764
0.00740022
0.0036522
0.00150012
0.000917437
0.00188249
0.00437773
0.00838889
0.0139043
0.0209144
0.0294109
0.0393867
0.0508353
0.0637507
0.0781269
0.0939582
0.111238
0.129961
0.15012
0.171708
0.194716
0.219138
0.244964
0.272185
0.30079
0.33077
0.362112
0.394805
0.428835
0.464189
0.500852
0.53881
0.578045
0.618542
0.660281
0.703245
0.747413
0.792765
0.839279
0.886932
0.935701
0.985561
1.03649
1.08845
1.14142
1.19538
1.25028
1.30611
1.36282
1.42038
1.47876
1.53792
1.59782
1.65842
1.71969
1.78157
1.84404
1.90703
1.97051
2.03443
2.09874
2.16339
2.22833
2.2935
2.35886
2.42434
2.4899
2.55548
2.62101
2.68644
2.7517
2.81674
2.88149
2.94588
3.00986
3.07336
3.13631
3.19864
3.26029
3.32119
3.38128
3.44048
3.49873
3.55597
3.61213
3.66715
3.72095
3.77347
3.82466
3.87446
3.92279
3.96961
4.01486
4.05849
4.10044
4.14067
4.17914
4.21579
4.25059
4.2835
4.3145
4.34355
4.37063
4.39572
4.41881
4.43988
4.45893
4.47596
4.49097
4.50397
4.51497
4.52399
4.53105
4.53617
4.53938
4.5407
4.54016
4.53778
4.53358
4.52758
4.51979
4.51021
4.49882
4.4856
0.0422351
0.0295242
0.0186665
0.00960826
0.00230033
-0.00330197
-0.00723826
-0.00954295
-0.0102455
-0.00937078
-0.00693985
-0.00297034
0.00252289
0.0095272
0.0180318
0.0280271
0.0395047
0.0524568
0.0668762
0.0827558
0.100089
0.118868
0.139086
0.160736
0.18381
0.208299
0.234194
0.261488
0.290168
0.320226
0.351649
0.384426
0.418544
0.45399
0.490749
0.528807
0.568147
0.608752
0.650607
0.69369
0.737984
0.783468
0.83012
0.877919
0.92684
0.976859
1.02795
1.08009
1.13324
1.18739
1.24249
1.29852
1.35544
1.41323
1.47184
1.53124
1.59139
1.65226
1.71379
1.77596
1.83871
1.902
1.96579
2.03002
2.09466
2.15964
2.22492
2.29045
2.35616
2.42201
2.48795
2.55391
2.61983
2.68565
2.75132
2.81677
2.88193
2.94674
3.01114
3.07506
3.13843
3.20119
3.26327
3.3246
3.38511
3.44474
3.50341
3.56107
3.61764
3.67306
3.72726
3.78018
3.83176
3.88192
3.93063
3.9778
4.0234
4.06735
4.10962
4.15016
4.18891
4.22583
4.26089
4.29404
4.32527
4.35452
4.38179
4.40705
4.43029
4.45149
4.47065
4.48777
4.50285
4.51589
4.52691
4.53592
4.54294
4.54799
4.5511
4.55229
4.55158
4.549
4.54457
4.5383
4.53022
4.52031
4.50858
4.49502
0.0311349
0.0180926
0.00692941
-0.00240427
-0.00995509
-0.0157669
-0.0198799
-0.0223298
-0.0231482
-0.0223625
-0.0199962
-0.0160699
-0.010601
-0.00360465
0.00490609
0.0149197
0.0264259
0.0394155
0.0538799
0.0698109
0.087201
0.106042
0.126327
0.148048
0.171196
0.195764
0.221741
0.249121
0.277891
0.308042
0.339563
0.372442
0.406667
0.442224
0.4791
0.51728
0.556747
0.597486
0.63948
0.68271
0.727156
0.7728
0.819619
0.867592
0.916695
0.966905
1.01819
1.07054
1.12391
1.17828
1.23362
1.28989
1.34707
1.40512
1.464
1.52369
1.58413
1.6453
1.70715
1.76963
1.83272
1.89636
1.9605
2.0251
2.09011
2.15548
2.22115
2.28709
2.35322
2.41949
2.48586
2.55225
2.61862
2.6849
2.75103
2.81694
2.88257
2.94786
3.01274
3.07714
3.14099
3.20424
3.2668
3.32862
3.38961
3.44972
3.50888
3.56701
3.62405
3.67993
3.73458
3.78795
3.83996
3.89055
3.93966
3.98724
4.03322
4.07755
4.12018
4.16106
4.20013
4.23736
4.27271
4.30613
4.3376
4.36709
4.39457
4.42002
4.44342
4.46477
4.48405
4.50126
4.51641
4.5295
4.54054
4.54954
4.55652
4.56151
4.56452
4.56558
4.56471
4.56194
4.55728
4.55077
4.54241
4.53221
4.52018
4.5063
0.01811
0.00476982
-0.00666974
-0.0162543
-0.0240281
-0.030034
-0.0343121
-0.0368991
-0.0378281
-0.0371282
-0.0348253
-0.0309418
-0.0254974
-0.0185093
-0.00999252
3.96967e-05
0.0115756
0.0246045
0.0391168
0.0551035
0.0725558
0.0914657
0.111825
0.133625
0.156858
0.181515
0.207588
0.235067
0.263941
0.294202
0.325838
0.358837
0.393188
0.428876
0.46589
0.504213
0.543831
0.584728
0.626886
0.670287
0.714914
0.760745
0.80776
0.855937
0.905253
0.955685
1.00721
1.05979
1.11341
1.16804
1.22365
1.28021
1.33768
1.39603
1.45523
1.51523
1.57601
1.63753
1.69974
1.76259
1.82606
1.89009
1.95464
2.01965
2.08509
2.1509
2.21702
2.28341
2.35001
2.41676
2.48361
2.55051
2.61738
2.68417
2.75081
2.81725
2.88341
2.94923
3.01465
3.07959
3.14399
3.20778
3.27089
3.33324
3.39478
3.45543
3.51512
3.57378
3.63134
3.68774
3.7429
3.79677
3.84926
3.90033
3.94991
3.99793
4.04434
4.08909
4.13211
4.17337
4.2128
4.25038
4.28604
4.31977
4.35152
4.38126
4.40897
4.43463
4.45821
4.47972
4.49913
4.51645
4.53167
4.54481
4.55587
4.56487
4.57182
4.57674
4.57965
4.58059
4.57956
4.57661
4.57174
4.565
4.55638
4.54591
4.5336
4.51944
0.00314454
-0.0104665
-0.0221582
-0.0319727
-0.039952
-0.0461379
-0.0505702
-0.0532861
-0.0543197
-0.0537015
-0.051459
-0.0476165
-0.0421954
-0.0352144
-0.0266903
-0.0166378
-0.00507
0.00800134
0.0225655
0.0386126
0.0561332
0.0751187
0.0955603
0.117449
0.140778
0.165536
0.191716
0.219308
0.248302
0.278689
0.310456
0.343594
0.378089
0.413929
0.451101
0.489591
0.529382
0.57046
0.612808
0.656407
0.70124
0.747287
0.794526
0.842937
0.892498
0.943183
0.994969
1.04783
1.10174
1.15666
1.21258
1.26945
1.32725
1.38595
1.4455
1.50587
1.56703
1.62894
1.69155
1.75482
1.81872
1.88319
1.94819
2.01367
2.07958
2.14588
2.2125
2.2794
2.34653
2.41381
2.48121
2.54865
2.61608
2.68344
2.75066
2.81768
2.88443
2.95085
3.01686
3.0824
3.1474
3.2118
3.27551
3.33847
3.40061
3.46186
3.52214
3.58139
3.63953
3.6965
3.75222
3.80664
3.85967
3.91126
3.96135
4.00987
4.05675
4.10196
4.14542
4.1871
4.22693
4.26488
4.3009
4.33495
4.367
4.39703
4.42499
4.45087
4.47466
4.49634
4.51589
4.53333
4.54864
4.56184
4.57293
4.58192
4.58884
4.5937
4.59652
4.59733
4.59616
4.59303
4.58797
4.581
4.57214
4.56143
4.54885
4.53444
-0.0137754
-0.0276356
-0.0395598
-0.0495868
-0.0577567
-0.0641101
-0.0686864
-0.0715232
-0.0726551
-0.0721139
-0.0699283
-0.0661238
-0.0607233
-0.0537472
-0.0452133
-0.0351377
-0.0235347
-0.010417
0.00420382
0.020317
0.0379126
0.0569813
0.077514
0.0995019
0.122936
0.147808
0.174108
0.201828
0.230956
0.261484
0.293401
0.326695
0.361354
0.397366
0.434718
0.473395
0.513384
0.554667
0.597229
0.641053
0.686119
0.732409
0.779902
0.828577
0.878412
0.929383
0.981465
1.03463
1.08886
1.14412
1.20038
1.25761
1.31578
1.37486
1.43481
1.49559
1.55717
1.61951
1.68257
1.74631
1.81068
1.87563
1.94114
2.00713
2.07357
2.14041
2.20759
2.27506
2.34275
2.41063
2.47862
2.54668
2.61473
2.68271
2.75057
2.81823
2.88562
2.95269
3.01936
3.08557
3.15123
3.21629
3.28067
3.34429
3.40709
3.469
3.52993
3.58982
3.6486
3.7062
3.76254
3.81756
3.87118
3.92335
3.97399
4.02305
4.07046
4.11617
4.16012
4.20225
4.24252
4.28087
4.31728
4.35169
4.38408
4.4144
4.44264
4.46877
4.49277
4.51464
4.53435
4.55192
4.56733
4.58059
4.59171
4.60071
4.6076
4.6124
4.61514
4.61584
4.61452
4.61122
4.60597
4.59879
4.58971
4.57876
4.56594
4.55128
-0.0326623
-0.0467549
-0.0588958
-0.0691212
-0.0774692
-0.0839792
-0.0886905
-0.0916406
-0.0928647
-0.0923954
-0.0902623
-0.0864922
-0.081109
-0.0741344
-0.0655874
-0.055485
-0.0438425
-0.0306735
-0.0159906
0.000195093
0.0178729
0.0370331
0.0576661
0.0797628
0.103314
0.128311
0.154745
0.182606
0.211885
0.242571
0.274653
0.308122
0.342964
0.379169
0.416722
0.455609
0.495818
0.537331
0.580132
0.624206
0.669532
0.716093
0.763869
0.812838
0.862978
0.914267
0.966679
1.02019
1.07477
1.1304
1.18704
1.24467
1.30325
1.36274
1.42313
1.48436
1.54641
1.60923
1.67278
1.73702
1.80191
1.86741
1.93346
2.00003
2.06705
2.13448
2.20226
2.27035
2.33868
2.4072
2.47585
2.54457
2.61329
2.68196
2.75051
2.81887
2.88698
2.95476
3.02215
3.08908
3.15547
3.22125
3.28635
3.3507
3.41422
3.47684
3.53849
3.59908
3.65856
3.71684
3.77385
3.82953
3.8838
3.93659
3.98784
4.03749
4.08547
4.13172
4.17619
4.21882
4.25956
4.29837
4.33519
4.36999
4.40274
4.43339
4.46193
4.48833
4.51257
4.53464
4.55452
4.57223
4.58774
4.60108
4.61225
4.62125
4.62812
4.63287
4.63553
4.63611
4.63466
4.6312
4.62577
4.61839
4.60909
4.59791
4.58487
4.56997
-0.0535284
-0.0678408
-0.0801863
-0.0905986
-0.0991143
-0.105772
-0.11061
-0.113667
-0.114977
-0.114574
-0.112489
-0.108749
-0.10338
-0.0964025
-0.0878381
-0.0777044
-0.0660175
-0.0527918
-0.0380404
-0.0217753
-0.00400749
0.0152528
0.0359957
0.0582118
0.081892
0.107027
0.133608
0.161625
0.191068
0.221929
0.254195
0.287857
0.322902
0.359318
0.397094
0.436214
0.476665
0.518432
0.561498
0.605847
0.651461
0.698321
0.746408
0.795701
0.846177
0.897815
0.95059
1.00448
1.05945
1.11548
1.17254
1.2306
1.28962
1.34958
1.41044
1.47217
1.53472
1.59807
1.66216
1.72696
1.79242
1.8585
1.92515
1.99233
2.05998
2.12806
2.1965
2.26526
2.33428
2.4035
2.47286
2.5423
2.61176
2.68118
2.75048
2.8196
2.88848
2.95704
3.02521
3.09292
3.1601
3.22667
3.29256
3.35769
3.42199
3.48539
3.54781
3.60917
3.66939
3.72841
3.78616
3.84255
3.89751
3.95099
4.0029
4.05319
4.10178
4.14863
4.19366
4.23683
4.27808
4.31737
4.35464
4.38987
4.423
4.45401
4.48287
4.50956
4.53406
4.55635
4.57642
4.59427
4.60991
4.62333
4.63454
4.64357
4.65042
4.65512
4.6577
4.65818
4.6566
4.65298
4.64737
4.6398
4.6303
4.6189
4.60562
4.5905
-0.0763858
-0.0909089
-0.10345
-0.11404
-0.122716
-0.129513
-0.134472
-0.137629
-0.13902
-0.138679
-0.136637
-0.132923
-0.127562
-0.120578
-0.111991
-0.101821
-0.0900841
-0.0767955
-0.061969
-0.0456169
-0.0277508
-0.00838132
0.0124815
0.0348279
0.0586486
0.0839342
0.110676
0.138863
0.168488
0.199539
0.232006
0.265879
0.301146
0.337795
0.375814
0.415189
0.455906
0.497951
0.541306
0.585957
0.631885
0.679073
0.727499
0.777145
0.827989
0.880007
0.933177
0.987474
1.04287
1.09934
1.15685
1.21538
1.27489
1.33536
1.39674
1.459
1.5221
1.58601
1.65068
1.71608
1.78216
1.84888
1.91618
1.98402
2.05236
2.12113
2.19029
2.25978
2.32954
2.39952
2.46965
2.53987
2.61013
2.68034
2.75046
2.82041
2.89011
2.95951
3.02852
3.09708
3.16511
3.23253
3.29927
3.36525
3.4304
3.49463
3.55788
3.62007
3.68111
3.74093
3.79946
3.85662
3.91234
3.96654
4.01917
4.07014
4.1194
4.16689
4.21253
4.25628
4.29809
4.33789
4.37565
4.41133
4.44488
4.47627
4.50548
4.53248
4.55725
4.57978
4.60005
4.61807
4.63383
4.64735
4.65862
4.66767
4.67451
4.67917
4.68167
4.68206
4.68035
4.67658
4.6708
4.66304
4.65333
4.64171
4.62822
4.61287
-0.101247
-0.115975
-0.128705
-0.139468
-0.148296
-0.155228
-0.160301
-0.163553
-0.165019
-0.164735
-0.162732
-0.159039
-0.153682
-0.146686
-0.138072
-0.12786
-0.116067
-0.102709
-0.0878
-0.071353
-0.0533799
-0.0338917
-0.0128987
0.00958913
0.0335623
0.0590115
0.0859273
0.1143
0.144121
0.17538
0.208065
0.242168
0.277676
0.314579
0.352862
0.392514
0.43352
0.475866
0.519536
0.564514
0.610784
0.658325
0.707121
0.75715
0.808391
0.860822
0.914419
0.969158
1.02501
1.08196
1.13996
1.199
1.25904
1.32004
1.38198
1.44481
1.50851
1.57303
1.63834
1.70438
1.77112
1.83852
1.90652
1.97508
2.04415
2.11368
2.1836
2.25387
2.32443
2.39522
2.46618
2.53725
2.60836
2.67944
2.75043
2.82126
2.89186
2.96216
3.03208
3.10154
3.17048
3.23882
3.30647
3.37337
3.43943
3.50456
3.56871
3.63178
3.69369
3.75437
3.81375
3.87174
3.92827
3.98326
4.03665
4.08837
4.13834
4.18651
4.23281
4.27718
4.31958
4.35994
4.39822
4.43438
4.46838
4.50019
4.52977
4.5571
4.58217
4.60495
4.62544
4.64364
4.65954
4.67316
4.68449
4.69357
4.70041
4.70503
4.70747
4.70776
4.70592
4.70201
4.69606
4.68811
4.6782
4.66637
4.65265
4.63708
-0.128126
-0.143055
-0.155971
-0.166901
-0.175878
-0.182939
-0.188122
-0.191464
-0.193002
-0.19277
-0.190801
-0.187124
-0.181767
-0.174754
-0.166107
-0.155847
-0.143991
-0.130557
-0.115558
-0.0990074
-0.0809183
-0.0613016
-0.0401679
-0.0175272
0.00661078
0.0322366
0.0593408
0.0879141
0.117947
0.149429
0.182351
0.216702
0.252471
0.289646
0.328215
0.368166
0.409484
0.452155
0.496164
0.541496
0.588133
0.636057
0.685249
0.73569
0.787359
0.840234
0.894291
0.949506
1.00586
1.06331
1.12184
1.18142
1.24202
1.30361
1.36614
1.4296
1.49393
1.55911
1.62509
1.69182
1.75928
1.8274
1.89616
1.96548
2.03534
2.10567
2.17641
2.24752
2.31894
2.3906
2.46245
2.53441
2.60643
2.67844
2.75037
2.82215
2.89371
2.96497
3.03586
3.1063
3.17622
3.24553
3.31416
3.38204
3.44907
3.51517
3.58028
3.64429
3.70715
3.76875
3.82903
3.88791
3.94531
4.00115
4.05536
4.10786
4.1586
4.2075
4.25451
4.29955
4.34258
4.38353
4.42237
4.45905
4.49353
4.52578
4.55576
4.58345
4.60883
4.63188
4.65261
4.671
4.68705
4.70078
4.71219
4.72131
4.72815
4.73274
4.73511
4.7353
4.73335
4.72929
4.72317
4.71503
4.70492
4.69288
4.67893
4.66312
-0.157036
-0.172167
-0.185266
-0.196361
-0.205484
-0.212671
-0.21796
-0.221389
-0.222994
-0.22281
-0.22087
-0.217205
-0.211842
-0.204807
-0.196121
-0.185807
-0.173882
-0.160364
-0.145267
-0.128605
-0.11039
-0.0906351
-0.0693498
-0.0465447
-0.0222296
0.00358603
0.0308927
0.0596811
0.0899417
0.121665
0.15484
0.189457
0.225506
0.262974
0.30185
0.342121
0.383774
0.426794
0.471167
0.516877
0.563908
0.612241
0.661859
0.712741
0.764868
0.818218
0.872767
0.928492
0.985368
1.04337
1.10246
1.16263
1.22383
1.28603
1.34921
1.41332
1.47834
1.54421
1.61091
1.67838
1.7466
1.8155
1.88505
1.9552
2.02589
2.09708
2.1687
2.2407
2.31303
2.38562
2.45841
2.53134
2.60433
2.67733
2.75026
2.82305
2.89562
2.96791
3.03984
3.11132
3.18228
3.25265
3.32233
3.39124
3.45931
3.52645
3.59258
3.65761
3.72147
3.78406
3.84531
3.90513
3.96346
4.0202
4.07528
4.12864
4.1802
4.22988
4.27763
4.32339
4.36709
4.40868
4.44812
4.48535
4.52035
4.55306
4.58346
4.61153
4.63725
4.6606
4.68157
4.70017
4.71638
4.73023
4.74173
4.75089
4.75773
4.7623
4.76461
4.76471
4.76264
4.75843
4.75214
4.74382
4.7335
4.72124
4.70706
4.69102
-0.187995
-0.203327
-0.216609
-0.227868
-0.237135
-0.244446
-0.249839
-0.253351
-0.25502
-0.254881
-0.252967
-0.249308
-0.243935
-0.236872
-0.228142
-0.217767
-0.205766
-0.192156
-0.176953
-0.16017
-0.141821
-0.121917
-0.100469
-0.077488
-0.0529833
-0.0269645
0.000558738
0.0295771
0.0600813
0.0920614
0.125508
0.16041
0.196757
0.234539
0.273742
0.314355
0.356365
0.399758
0.444519
0.490633
0.538083
0.586853
0.636924
0.688277
0.740891
0.794746
0.849819
0.906086
0.963523
1.0221
1.0818
1.14258
1.20442
1.26729
1.33114
1.39596
1.46169
1.52831
1.59577
1.66403
1.73305
1.80278
1.87318
1.9442
2.01578
2.08787
2.16043
2.23338
2.30668
2.38026
2.45405
2.528
2.60203
2.67608
2.75007
2.82393
2.89759
2.97098
3.04401
3.1166
3.18867
3.26015
3.33094
3.40097
3.47015
3.53839
3.60561
3.67172
3.73664
3.80029
3.86257
3.92341
3.98272
4.04042
4.09644
4.1507
4.20313
4.25365
4.3022
4.34871
4.39314
4.43541
4.47548
4.5133
4.54884
4.58205
4.6129
4.64138
4.66745
4.69111
4.71235
4.73117
4.74756
4.76154
4.77313
4.78234
4.7892
4.79373
4.79599
4.796
4.7938
4.78945
4.783
4.77448
4.76396
4.75147
4.73706
4.72076
-0.221018
-0.236554
-0.250021
-0.261445
-0.270856
-0.27829
-0.283784
-0.287378
-0.289107
-0.289009
-0.287116
-0.283461
-0.278072
-0.270975
-0.262196
-0.251754
-0.23967
-0.225961
-0.210643
-0.193731
-0.175237
-0.155174
-0.133552
-0.110383
-0.0856759
-0.0594406
-0.0316867
-0.00242333
0.02834
0.0605939
0.0943284
0.129533
0.166199
0.204313
0.243864
0.284841
0.327231
0.371019
0.416192
0.462735
0.510631
0.559864
0.610416
0.662267
0.715399
0.76979
0.825418
0.88226
0.940291
0.999485
1.05982
1.12125
1.18377