# vtk DataFile Version 2.0
Lid-driven cavity
ASCII
DATASET STRUCTURED_POINTS
DIMENSIONS 128 128 1
ORIGIN 0.00390625 0.00390625 0
SPACING 0.0078125 0.0078125 1
POINT_DATA 16384
SCALARS pressure double 1
LOOKUP_TABLE default
-0.67677
-0.678135
-0.680994
-0.68456
-0.688188
-0.69141
-0.693904
-0.695449
-0.695902
-0.695168
-0.693191
-0.689937
-0.685391
-0.679551
-0.67242
-0.664008
-0.65433
-0.6434
-0.631235
-0.617851
-0.603266
-0.587496
-0.570558
-0.552468
-0.533241
-0.512893
-0.491441
-0.468898
-0.44528
-0.420603
-0.394883
-0.368134
-0.340374
-0.311618
-0.281883
-0.251188
-0.219548
-0.186984
-0.153514
-0.119156
-0.0839326
-0.0478626
-0.010968
0.0267295
0.0652072
0.104442
0.14441
0.185086
0.226446
0.268464
0.311112
0.354364
0.398193
0.442568
0.487462
0.532844
0.578684
0.624951
0.671612
0.718636
0.765989
0.813637
0.861547
0.909683
0.958011
1.00649
1.05509
1.10378
1.15251
1.20124
1.24995
1.29858
1.3471
1.39548
1.44366
1.49162
1.5393
1.58667
1.63369
1.68032
1.72651
1.77222
1.81742
1.86206
1.90609
1.94948
1.99219
2.03418
2.0754
2.11581
2.15538
2.19407
2.23183
2.26863
2.30443
2.3392
2.37289
2.40547
2.43691
2.46717
2.49621
2.52401
2.55053
2.57575
2.59962
2.62213
2.64323
2.66292
2.68115
2.6979
2.71316
2.72689
2.73908
2.74972
2.75879
2.76628
2.77221
2.77658
2.77942
2.78077
2.78072
2.77937
2.77689
2.77354
2.76968
2.76582
2.76268
2.76115
-0.675416
-0.676779
-0.679122
-0.681929
-0.68474
-0.687187
-0.688989
-0.689942
-0.689902
-0.688767
-0.68647
-0.682967
-0.678234
-0.672257
-0.665032
-0.656563
-0.646857
-0.635923
-0.623774
-0.610424
-0.595885
-0.580174
-0.563304
-0.54529
-0.526146
-0.505889
-0.484531
-0.462089
-0.438577
-0.41401
-0.388403
-0.361772
-0.334134
-0.305504
-0.2759
-0.245338
-0.213836
-0.181414
-0.148088
-0.11388
-0.0788087
-0.042895
-0.0061603
0.0313737
0.0696843
0.108748
0.148542
0.189041
0.230221
0.272054
0.314515
0.357577
0.401212
0.445391
0.490085
0.535265
0.580899
0.626958
0.673409
0.72022
0.767357
0.814788
0.862478
0.910393
0.958496
1.00675
1.05513
1.10358
1.15208
1.20058
1.24906
1.29746
1.34575
1.39388
1.44183
1.48955
1.537
1.58414
1.63093
1.67732
1.72327
1.76876
1.81372
1.85813
1.90193
1.9451
1.98758
2.02935
2.07035
2.11055
2.14991
2.18838
2.22594
2.26254
2.29814
2.33271
2.36622
2.39862
2.42988
2.45997
2.48885
2.51649
2.54287
2.56794
2.59169
2.61408
2.63508
2.65467
2.67283
2.68953
2.70475
2.71848
2.7307
2.74141
2.75058
2.75824
2.76438
2.76904
2.77224
2.77405
2.77455
2.77387
2.77217
2.76968
2.76672
2.76371
2.76115
2.75962
-0.672557
-0.674439
-0.676786
-0.679293
-0.681657
-0.683607
-0.684923
-0.68543
-0.684998
-0.68353
-0.680957
-0.677232
-0.672324
-0.666214
-0.658893
-0.650359
-0.640615
-0.629665
-0.61752
-0.604188
-0.589683
-0.574015
-0.557198
-0.539246
-0.520171
-0.499989
-0.478712
-0.456355
-0.432933
-0.40846
-0.382952
-0.356423
-0.328891
-0.30037
-0.270878
-0.240432
-0.20905
-0.17675
-0.14355
-0.109471
-0.0745314
-0.0387527
-0.002156
0.035237
0.0734038
0.112321
0.151966
0.192312
0.233337
0.275012
0.317313
0.360213
0.403682
0.447694
0.492218
0.537226
0.582687
0.628569
0.674842
0.721473
0.768428
0.815676
0.863181
0.910909
0.958824
1.00689
1.05508
1.10334
1.15164
1.19996
1.24823
1.29644
1.34453
1.39248
1.44023
1.48776
1.53501
1.58195
1.62854
1.67474
1.72051
1.7658
1.81057
1.85479
1.89841
1.94139
1.98369
2.02527
2.0661
2.10612
2.1453
2.18361
2.221
2.25743
2.29288
2.32729
2.36064
2.3929
2.42401
2.45397
2.48272
2.51024
2.53649
2.56146
2.5851
2.6074
2.62832
2.64785
2.66596
2.68262
2.69784
2.71158
2.72384
2.73461
2.74389
2.7517
2.75804
2.76294
2.76645
2.76864
2.76957
2.76938
2.76822
2.76628
2.76382
2.76114
2.75859
2.75648
-0.668983
-0.671632
-0.674289
-0.676803
-0.67899
-0.680667
-0.681671
-0.681865
-0.681139
-0.679408
-0.676607
-0.672691
-0.667628
-0.661396
-0.653982
-0.645381
-0.635593
-0.624619
-0.612467
-0.599143
-0.584658
-0.569021
-0.552244
-0.53434
-0.51532
-0.495198
-0.473987
-0.451701
-0.428354
-0.40396
-0.378535
-0.352092
-0.324649
-0.296221
-0.266824
-0.236476
-0.205195
-0.172998
-0.139905
-0.105934
-0.0711058
-0.0354408
0.00103997
0.0383147
0.0763609
0.115156
0.154675
0.194895
0.23579
0.277335
0.319503
0.362267
0.4056
0.449473
0.493858
0.538724
0.584042
0.62978
0.675907
0.72239
0.769198
0.816296
0.86365
0.911227
0.95899
1.0069
1.05493
1.10304
1.15119
1.19935
1.24747
1.29552
1.34346
1.39125
1.43885
1.48622
1.53332
1.58011
1.62654
1.67259
1.7182
1.76334
1.80797
1.85204
1.89551
1.93835
1.9805
2.02194
2.06263
2.10251
2.14156
2.17973
2.21699
2.2533
2.28862
2.32291
2.35615
2.38829
2.4193
2.44914
2.47779
2.50522
2.53139
2.55627
2.57984
2.60207
2.62294
2.64242
2.6605
2.67715
2.69237
2.70613
2.71843
2.72928
2.73866
2.7466
2.75311
2.75822
2.76198
2.76445
2.76571
2.76586
2.76504
2.7634
2.76114
2.75846
2.75557
2.75262
-0.665336
-0.668817
-0.671936
-0.674642
-0.676837
-0.678407
-0.679239
-0.679232
-0.6783
-0.676372
-0.673393
-0.66932
-0.664124
-0.657783
-0.650283
-0.641617
-0.631783
-0.62078
-0.608613
-0.595287
-0.580811
-0.565194
-0.548445
-0.530576
-0.511598
-0.491523
-0.470365
-0.448135
-0.424848
-0.400518
-0.37516
-0.348787
-0.321417
-0.293064
-0.263745
-0.233477
-0.202278
-0.170166
-0.137159
-0.103276
-0.0685384
-0.0329654
0.00342151
0.0406007
0.0785498
0.117246
0.156665
0.196783
0.237575
0.279015
0.321078
0.363735
0.40696
0.450724
0.494999
0.539754
0.58496
0.630585
0.676599
0.722968
0.769661
0.816643
0.863882
0.911342
0.958989
1.00679
1.0547
1.10269
1.15072
1.19876
1.24677
1.2947
1.34252
1.3902
1.43768
1.48493
1.53192
1.57859
1.62492
1.67085
1.71635
1.76138
1.8059
1.84986
1.89322
1.93595
1.97801
2.01935
2.05993
2.09971
2.13867
2.17674
2.21391
2.25013
2.28536
2.31957
2.35272
2.38477
2.41571
2.44548
2.47406
2.50142
2.52753
2.55235
2.57588
2.59807
2.6189
2.63836
2.65643
2.67308
2.68831
2.7021
2.71445
2.72537
2.73484
2.7429
2.74955
2.75483
2.75878
2.76146
2.76294
2.7633
2.76267
2.76115
2.75888
2.75599
2.75259
2.74875
-0.662083
-0.666364
-0.67
-0.672998
-0.675317
-0.676896
-0.677661
-0.677544
-0.676479
-0.674412
-0.671299
-0.667103
-0.661798
-0.655364
-0.647787
-0.63906
-0.62918
-0.618144
-0.605957
-0.592623
-0.578148
-0.56254
-0.545808
-0.527962
-0.509013
-0.488972
-0.467852
-0.445665
-0.422424
-0.398142
-0.372835
-0.346517
-0.319202
-0.290908
-0.261649
-0.231443
-0.200308
-0.16826
-0.13532
-0.101505
-0.0668366
-0.031334
0.00498147
0.0420881
0.0799636
0.118585
0.157929
0.197971
0.238686
0.280049
0.322033
0.364611
0.407757
0.451441
0.495636
0.54031
0.585435
0.630979
0.676912
0.7232
0.769811
0.816712
0.86387
0.911249
0.958814
1.00653
1.05436
1.10227
1.15023
1.19819
1.24611
1.29397
1.34171
1.38931
1.43671
1.48389
1.5308
1.5774
1.62365
1.66952
1.71495
1.7599
1.80435
1.84824
1.89154
1.93421
1.9762
2.01747
2.05799
2.09771
2.1366
2.17462
2.21173
2.24789
2.28307
2.31723
2.35033
2.38234
2.41323
2.44295
2.4715
2.49882
2.52489
2.54969
2.57319
2.59536
2.61619
2.63564
2.65371
2.67038
2.68563
2.69946
2.71186
2.72284
2.7324
2.74055
2.74732
2.75272
2.75681
2.75964
2.76125
2.76173
2.76116
2.75963
2.75722
2.75402
2.75007
2.74537
-0.659551
-0.664557
-0.668707
-0.672039
-0.67455
-0.676213
-0.676987
-0.676827
-0.675689
-0.673534
-0.670326
-0.666037
-0.660645
-0.654134
-0.64649
-0.637708
-0.627783
-0.616714
-0.604502
-0.591153
-0.576671
-0.561063
-0.544338
-0.526504
-0.507572
-0.487553
-0.466458
-0.444299
-0.421089
-0.396842
-0.371571
-0.34529
-0.318015
-0.289762
-0.260545
-0.230383
-0.199292
-0.167291
-0.134396
-0.100629
-0.0660083
-0.0305541
0.00571234
0.0427696
0.0805953
0.119167
0.15846
0.198451
0.239116
0.280428
0.322361
0.364889
0.407984
0.451618
0.495762
0.540387
0.585462
0.630957
0.676841
0.72308
0.769644
0.816498
0.863608
0.910941
0.958461
1.00613
1.05392
1.10179
1.1497
1.19761
1.2455
1.29331
1.34102
1.38858
1.43595
1.48309
1.52996
1.57653
1.62275
1.66858
1.71398
1.7589
1.80332
1.84718
1.89045
1.93309
1.97505
2.0163
2.0568
2.0965
2.13537
2.17336
2.21045
2.24659
2.28175
2.31589
2.34897
2.38097
2.41184
2.44156
2.47009
2.4974
2.52347
2.54827
2.57176
2.59394
2.61477
2.63424
2.65233
2.66902
2.68431
2.69818
2.71064
2.72167
2.7313
2.73954
2.74639
2.75189
2.75608
2.75899
2.76067
2.76119
2.7606
2.75897
2.75635
2.75279
2.74829
2.74283
-0.657966
-0.663607
-0.668239
-0.671912
-0.674647
-0.676439
-0.677272
-0.677119
-0.675954
-0.673749
-0.67048
-0.666125
-0.660667
-0.654093
-0.646393
-0.637561
-0.627594
-0.61649
-0.604252
-0.590882
-0.576387
-0.560771
-0.544043
-0.526211
-0.507285
-0.487275
-0.466192
-0.444048
-0.420855
-0.396626
-0.371375
-0.345116
-0.317864
-0.289635
-0.260443
-0.230306
-0.19924
-0.167265
-0.134397
-0.100656
-0.0660614
-0.0306336
0.00560661
0.0426377
0.0804376
0.118983
0.158252
0.198218
0.238859
0.280147
0.322057
0.364563
0.407636
0.451249
0.495373
0.539979
0.585036
0.630513
0.67638
0.722605
0.769154
0.815995
0.863093
0.910414
0.957924
1.00559
1.05337
1.10123
1.14913
1.19704
1.24493
1.29274
1.34044
1.388
1.43537
1.48252
1.5294
1.57597
1.62219
1.66803
1.71343
1.75837
1.8028
1.84667
1.88995
1.9326
1.97457
2.01583
2.05634
2.09606
2.13494
2.17295
2.21005
2.24621
2.28138
2.31554
2.34863
2.38064
2.41153
2.44127
2.46981
2.49715
2.52323
2.54805
2.57157
2.59377
2.61463
2.63413
2.65225
2.66898
2.68431
2.69823
2.71074
2.72184
2.73153
2.73983
2.74675
2.75232
2.75656
2.75951
2.76122
2.76172
2.76106
2.75928
2.75642
2.75249
2.74748
2.74136
-0.657482
-0.66367
-0.668736
-0.672738
-0.675706
-0.677652
-0.678574
-0.678463
-0.677304
-0.67508
-0.671775
-0.667376
-0.66187
-0.655247
-0.6475
-0.638624
-0.628617
-0.617479
-0.605211
-0.591817
-0.577301
-0.56167
-0.54493
-0.52709
-0.508159
-0.488146
-0.467062
-0.444919
-0.421729
-0.397504
-0.372258
-0.346005
-0.318759
-0.290536
-0.26135
-0.23122
-0.200161
-0.168191
-0.135329
-0.101593
-0.0670036
-0.0315799
0.004657
0.0416856
0.0794838
0.118029
0.157297
0.197265
0.237908
0.2792
0.321115
0.363627
0.406708
0.450329
0.494464
0.539081
0.584151
0.629643
0.675526
0.721768
0.768336
0.815198
0.862319
0.909664
0.957199
1.00489
1.0527
1.10059
1.14852
1.19647
1.24439
1.29224
1.33998
1.38758
1.43499
1.48218
1.5291
1.57571
1.62198
1.66786
1.71331
1.7583
1.80277
1.8467
1.89003
1.93272
1.97475
2.01606
2.05662
2.09638
2.13531
2.17337
2.21053
2.24673
2.28195
2.31615
2.3493
2.38136
2.41229
2.44207
2.47066
2.49804
2.52417
2.54903
2.5726
2.59485
2.61575
2.6353
2.65347
2.67025
2.68563
2.6996
2.71216
2.72332
2.73307
2.74142
2.74839
2.754
2.75827
2.76124
2.76292
2.76337
2.7626
2.76065
2.75753
2.75326
2.7478
2.7411
-0.658205
-0.664858
-0.670308
-0.674614
-0.67781
-0.679919
-0.680949
-0.680901
-0.67977
-0.67755
-0.674231
-0.669805
-0.664265
-0.657603
-0.649817
-0.640902
-0.630859
-0.619686
-0.607387
-0.593964
-0.579422
-0.563768
-0.547008
-0.52915
-0.510202
-0.490175
-0.469078
-0.446923
-0.423721
-0.399485
-0.374229
-0.347965
-0.320708
-0.292473
-0.263276
-0.233134
-0.202062
-0.170078
-0.137201
-0.103449
-0.0688423
-0.0334001
0.00285655
0.0399063
0.0777272
0.116297
0.155591
0.195586
0.236258
0.277581
0.319529
0.362076
0.405193
0.448854
0.493028
0.537688
0.582803
0.628341
0.674273
0.720566
0.767187
0.814104
0.861282
0.908686
0.956283
1.00404
1.05191
1.09987
1.14787
1.19589
1.24388
1.2918
1.33962
1.3873
1.43479
1.48205
1.52906
1.57575
1.62211
1.66807
1.71361
1.75868
1.80324
1.84725
1.89067
1.93346
1.97557
2.01697
2.05761
2.09746
2.13648
2.17463
2.21186
2.24815
2.28346
2.31774
2.35096
2.3831
2.41411
2.44396
2.47262
2.50007
2.52627
2.5512
2.57484
2.59715
2.61812
2.63773
2.65596
2.6728
2.68824
2.70227
2.71489
2.7261
2.7359
2.7443
2.7513
2.75694
2.76122
2.76417
2.76582
2.76618
2.76529
2.76316
2.75979
2.75519
2.74933
2.74217
-0.660205
-0.667252
-0.673038
-0.677618
-0.68103
-0.6833
-0.684445
-0.684473
-0.683387
-0.681185
-0.677867
-0.673428
-0.667864
-0.661174
-0.653355
-0.644406
-0.634326
-0.623119
-0.610785
-0.59733
-0.582757
-0.567073
-0.550284
-0.532398
-0.513423
-0.49337
-0.472247
-0.450067
-0.426839
-0.402578
-0.377295
-0.351004
-0.323719
-0.295456
-0.266229
-0.236055
-0.20495
-0.172933
-0.14002
-0.106231
-0.0715845
-0.0361012
0.000198563
0.0372935
0.0751616
0.11378
0.153126
0.193176
0.233904
0.275286
0.317295
0.359905
0.403088
0.446817
0.491063
0.535796
0.580987
0.626605
0.672618
0.718995
0.765703
0.812708
0.859978
0.907477
0.95517
1.00302
1.051
1.09906
1.14717
1.1953
1.2434
1.29143
1.33936
1.38716
1.43476
1.48215
1.52927
1.57609
1.62257
1.66866
1.71432
1.75952
1.80421
1.84834
1.89189
1.9348
1.97704
2.01856
2.05933
2.0993
2.13844
2.17671
2.21406
2.25047
2.28588
2.32028
2.35361
2.38585
2.41697
2.44692
2.47569
2.50323
2.52953
2.55455
2.57827
2.60067
2.62172
2.6414
2.65971
2.67663
2.69214
2.70623
2.71891
2.73018
2.74002
2.74846
2.75549
2.76114
2.76542
2.76834
2.76993
2.77021
2.76918
2.76687
2.76327
2.75838
2.75217
2.74462
-0.663532
-0.670911
-0.676987
-0.681812
-0.685423
-0.687849
-0.689109
-0.689218
-0.688185
-0.686013
-0.682705
-0.678262
-0.672684
-0.665972
-0.658124
-0.649143
-0.63903
-0.627786
-0.615416
-0.601923
-0.587313
-0.571592
-0.554766
-0.536843
-0.517831
-0.49774
-0.476579
-0.454359
-0.431092
-0.40679
-0.381465
-0.355131
-0.327801
-0.299491
-0.270216
-0.239992
-0.208835
-0.176763
-0.143793
-0.109945
-0.0752372
-0.0396898
-0.00332342
0.0338408
0.0717809
0.110474
0.149898
0.190028
0.23084
0.272308
0.314406
0.357109
0.400388
0.444215
0.488563
0.533401
0.5787
0.624429
0.670557
0.717051
0.763879
0.811008
0.858405
0.906033
0.953859
1.00185
1.04996
1.09816
1.14642
1.19469
1.24294
1.29112
1.33921
1.38715
1.43492
1.48246
1.52975
1.57673
1.62336
1.66962
1.71544
1.7608
1.80566
1.84996
1.89366
1.93674
1.97914
2.02082
2.06175
2.10189
2.14118
2.1796
2.21711
2.25367
2.28923
2.32377
2.35725
2.38963
2.42087
2.45096
2.47985
2.50752
2.53393
2.55906
2.58289
2.60539
2.62654
2.64633
2.66472
2.68172
2.69731
2.71148
2.72422
2.73554
2.74544
2.75391
2.76097
2.76662
2.77088
2.77377
2.77529
2.77547
2.77431
2.77183
2.76801
2.76286
2.75636
2.74847
-0.668218
-0.675877
-0.682204
-0.687245
-0.691036
-0.693607
-0.69498
-0.695172
-0.694195
-0.692058
-0.688768
-0.684328
-0.678741
-0.67201
-0.664138
-0.655126
-0.644978
-0.633697
-0.621287
-0.607753
-0.5931
-0.577334
-0.560463
-0.542493
-0.523433
-0.503292
-0.482081
-0.459809
-0.436489
-0.412131
-0.386748
-0.360354
-0.332962
-0.304588
-0.275246
-0.244952
-0.213723
-0.181575
-0.148528
-0.114599
-0.079807
-0.0441725
-0.00771579
0.029542
0.0675792
0.106373
0.145901
0.186138
0.22706
0.268643
0.310859
0.353683
0.397087
0.441044
0.485524
0.530499
0.575938
0.62181
0.668085
0.71473
0.761713
0.809
0.856558
0.904351
0.952345
1.0005
1.04879
1.09717
1.14561
1.19406
1.2425
1.29087
1.33915
1.38729
1.43525
1.48299
1.53047
1.57765
1.62449
1.67094
1.71697
1.76254
1.80759
1.85209
1.896
1.93928
1.98188
2.02376
2.06489
2.10522
2.1447
2.18332
2.22101
2.25775
2.29349
2.32821
2.36186
2.39441
2.42582
2.45606
2.4851
2.51292
2.53947
2.56474
2.5887
2.61133
2.6326
2.65249
2.67099
2.68808
2.70376
2.71801
2.73082
2.7422
2.75214
2.76065
2.76772
2.77338
2.77763
2.78047
2.78193
2.78201
2.78072
2.77807
2.77406
2.76869
2.76193
2.75377
-0.674283
-0.682179
-0.688724
-0.693955
-0.697909
-0.700613
-0.702092
-0.702364
-0.701445
-0.699346
-0.696077
-0.691643
-0.68605
-0.679304
-0.671408
-0.662366
-0.652183
-0.640862
-0.628409
-0.614828
-0.600126
-0.584308
-0.567383
-0.549356
-0.530238
-0.510037
-0.488762
-0.466425
-0.443036
-0.418607
-0.393151
-0.366681
-0.33921
-0.310753
-0.281325
-0.250942
-0.219621
-0.187378
-0.154231
-0.120199
-0.0853008
-0.049556
-0.012985
0.024391
0.0625502
0.10147
0.141128
0.181499
0.22256
0.264285
0.306648
0.349623
0.393183
0.437298
0.481942
0.527085
0.572696
0.618744
0.6652
0.712029
0.759201
0.80668
0.854435
0.902428
0.950627
0.998994
1.04749
1.09609
1.14474
1.19342
1.24208
1.29068
1.33918
1.38755
1.43575
1.48372
1.53144
1.57886
1.62594
1.67264
1.71891
1.76471
1.81
1.85475
1.8989
1.94241
1.98525
2.02737
2.06873
2.10929
2.14901
2.18784
2.22576
2.26271
2.29867
2.3336
2.36745
2.40019
2.4318
2.46223
2.49145
2.51944
2.54616
2.57159
2.5957
2.61846
2.63987
2.65989
2.67851
2.69571
2.71148
2.72582
2.73871
2.75015
2.76014
2.76869
2.77578
2.78144
2.78566
2.78847
2.78986
2.78984
2.78843
2.78564
2.78145
2.77588
2.7689
2.7605
-0.681741
-0.689841
-0.696574
-0.701973
-0.706072
-0.708898
-0.710476
-0.710825
-0.709962
-0.707901
-0.704653
-0.700227
-0.69463
-0.687869
-0.67995
-0.670877
-0.660656
-0.649293
-0.636792
-0.623159
-0.608401
-0.592524
-0.575535
-0.557443
-0.538255
-0.517981
-0.496631
-0.474215
-0.450743
-0.426229
-0.400683
-0.374119
-0.346552
-0.317994
-0.288462
-0.257971
-0.226537
-0.194178
-0.16091
-0.126753
-0.0917255
-0.0558469
-0.0191376
0.0183811
0.0566877
0.0957596
0.135574
0.176107
0.217334
0.259229
0.301768
0.344923
0.388668
0.432974
0.477812
0.523154
0.568969
0.615227
0.661896
0.708944
0.756338
0.804045
0.852031
0.900261
0.948699
0.99731
1.04606
1.0949
1.14381
1.19275
1.24167
1.29054
1.33931
1.38795
1.43642
1.48467
1.53266
1.58036
1.62772
1.67469
1.72124
1.76733
1.8129
1.85792
1.90235
1.94614
1.98926
2.03165
2.07328
2.11411
2.15409
2.19318
2.23135
2.26856
2.30476
2.33993
2.37401
2.40699
2.43881
2.46945
2.49888
2.52707
2.55398
2.57959
2.60387
2.6268
2.64836
2.66852
2.68727
2.7046
2.72048
2.73492
2.74789
2.7594
2.76945
2.77803
2.78515
2.7908
2.79501
2.79777
2.7991
2.799
2.79748
2.79454
2.7902
2.78445
2.77728
2.76868
-0.690601
-0.698878
-0.705775
-0.711324
-0.715553
-0.718489
-0.720157
-0.720578
-0.719768
-0.717743
-0.714517
-0.710098
-0.704496
-0.69772
-0.689776
-0.680671
-0.67041
-0.659
-0.646446
-0.632756
-0.617935
-0.60199
-0.58493
-0.566761
-0.547493
-0.527135
-0.505696
-0.483187
-0.459619
-0.435003
-0.409352
-0.382679
-0.354997
-0.326321
-0.296665
-0.266046
-0.23448
-0.201983
-0.168573
-0.134268
-0.0990883
-0.0630523
-0.0261807
0.0115057
0.049985
0.089235
0.129233
0.169954
0.211375
0.25347
0.296213
0.339578
0.383538
0.428065
0.473129
0.518702
0.564754
0.611253
0.658169
0.705469
0.75312
0.80109
0.849342
0.897844
0.946559
0.995451
1.04448
1.09362
1.14282
1.19205
1.24128
1.29045
1.33953
1.38848
1.43725
1.48582
1.53413
1.58214
1.62982
1.67711
1.72398
1.77038
1.81628
1.86162
1.90636
1.95047
1.9939
2.0366
2.07854
2.11967
2.15995
2.19934
2.2378
2.27529
2.31177
2.34721
2.38156
2.41479
2.44686
2.47775
2.50741
2.53582
2.56295
2.58876
2.61324
2.63635
2.65808
2.6784
2.6973
2.71476
2.73076
2.7453
2.75837
2.76996
2.78007
2.78869
2.79583
2.80149
2.80568
2.80841
2.80968
2.8095
2.80787
2.80481
2.80033
2.79442
2.78708
2.77831
-0.70087
-0.709303
-0.716345
-0.722027
-0.726373
-0.72941
-0.731161
-0.731647
-0.730886
-0.728895
-0.725687
-0.721274
-0.715667
-0.708874
-0.700903
-0.691762
-0.681457
-0.669995
-0.657384
-0.643629
-0.628738
-0.612718
-0.595576
-0.577322
-0.557962
-0.537507
-0.515967
-0.493351
-0.469672
-0.444939
-0.419167
-0.392367
-0.364553
-0.33574
-0.305942
-0.275176
-0.243456
-0.2108
-0.177226
-0.142752
-0.107397
-0.07118
-0.0341216
0.00375729
0.042435
0.0818891
0.122097
0.163034
0.204677
0.246999
0.289977
0.333581
0.377787
0.422565
0.467887
0.513723
0.560044
0.606818
0.654014
0.7016
0.749543
0.797809
0.846365
0.895174
0.944202
0.993411
1.04277
1.09223
1.14176
1.19133
1.24089
1.2904
1.33983
1.38912
1.43825
1.48717
1.53584
1.58421
1.63224
1.67989
1.72712
1.77388
1.82013
1.86583
1.91093
1.95539
1.99917
2.04222
2.0845
2.12597
2.16659
2.20631
2.24509
2.2829
2.3197
2.35544
2.39008
2.4236
2.45596
2.48711
2.51703
2.54569
2.57305
2.5991
2.62379
2.6471
2.66902
2.68952
2.70858
2.72619
2.74233
2.75699
2.77016
2.78183
2.792
2.80068
2.80785
2.81352
2.8177
2.82039
2.82161
2.82135
2.81963
2.81646
2.81185
2.80579
2.7983
2.78938
-0.712553
-0.721125
-0.728298
-0.734099
-0.738551
-0.741679
-0.743506
-0.744052
-0.743336
-0.741375
-0.738184
-0.733774
-0.728158
-0.721345
-0.713344
-0.704163
-0.69381
-0.682292
-0.669617
-0.655791
-0.640822
-0.624718
-0.607485
-0.589134
-0.569672
-0.549108
-0.527453
-0.504717
-0.480911
-0.456047
-0.430137
-0.403193
-0.37523
-0.346262
-0.316303
-0.285368
-0.253475
-0.22064
-0.18688
-0.152214
-0.11666
-0.0802379
-0.0429684
-0.00487193
0.0340297
0.0737143
0.114159
0.15534
0.197232
0.239811
0.283052
0.326926
0.371407
0.416468
0.462078
0.50821
0.554832
0.601914
0.649425
0.697331
0.7456
0.794199
0.843092
0.892245
0.941622
0.991186
1.0409
1.09073
1.14063
1.19057
1.24051
1.2904
1.34021
1.38989
1.43941
1.48872
1.53778
1.58655
1.63498
1.68303
1.73066
1.77781
1.82446
1.87056
1.91605
1.9609
2.00507
2.04851
2.09117
2.13302
2.17401
2.21409
2.25324
2.2914
2.32854
2.36462
2.39959
2.43343
2.46609
2.49754
2.52775
2.55669
2.58431
2.61061
2.63553
2.65907
2.6812
2.7019
2.72114
2.73891
2.75519
2.76998
2.78326
2.79503
2.80528
2.814
2.82121
2.8269
2.83107
2.83374
2.83491
2.83458
2.83278
2.8295
2.82477
2.81858
2.81096
2.80189
-0.725653
-0.734352
-0.741646
-0.747556
-0.752105
-0.755316
-0.757212
-0.757813
-0.757137
-0.755202
-0.752024
-0.747614
-0.741986
-0.735149
-0.727114
-0.71789
-0.707484
-0.695904
-0.683158
-0.669254
-0.654198
-0.638
-0.620668
-0.602209
-0.582632
-0.561948
-0.540165
-0.517295
-0.493348
-0.468337
-0.442272
-0.415168
-0.387038
-0.357895
-0.327755
-0.296634
-0.264546
-0.23151
-0.197542
-0.162661
-0.126885
-0.090235
-0.0527297
-0.0143906
0.0247608
0.0647023
0.105411
0.146863
0.189033
0.231898
0.27543
0.319604
0.364392
0.409766
0.455697
0.502156
0.549113
0.596536
0.644394
0.692655
0.741285
0.790251
0.839518
0.889051
0.938813
0.988769
1.03888
1.08911
1.13942
1.18977
1.24012
1.29044
1.34067
1.39078
1.44073
1.49047
1.53997
1.58917
1.63804
1.68652
1.73459
1.78219
1.82927
1.8758
1.92173
1.96701
2.01161
2.05547
2.09855
2.14081
2.18221
2.2227
2.26224
2.30079
2.33831
2.37475
2.41009
2.44427
2.47728
2.50906
2.53958
2.56882
2.59673
2.6233
2.64849
2.67227
2.69463
2.71553
2.73497
2.75292
2.76936
2.78429
2.79769
2.80956
2.8199
2.82869
2.83593
2.84164
2.84582
2.84846
2.84959
2.8492
2.84732
2.84395
2.83911
2.8328
2.82504
2.81584
-0.740176
-0.748994
-0.756399
-0.762411
-0.76705
-0.770338
-0.772297
-0.772947
-0.772307
-0.770395
-0.767225
-0.762811
-0.757167
-0.750303
-0.74223
-0.732956
-0.722491
-0.710843
-0.698019
-0.684029
-0.668879
-0.652579
-0.635135
-0.616558
-0.596855
-0.576037
-0.554114
-0.531095
-0.506993
-0.481818
-0.455583
-0.428301
-0.399986
-0.37065
-0.340311
-0.308981
-0.276679
-0.243421
-0.209223
-0.174104
-0.138084
-0.101181
-0.0634152
-0.0248081
0.0146189
0.0548437
0.0958432
0.137594
0.180071
0.22325
0.267104
0.311607
0.356732
0.402451
0.448734
0.495553
0.542877
0.590675
0.638915
0.687565
0.736591
0.78596
0.835636
0.885585
0.93577
0.986154
1.0367
1.08737
1.13813
1.18893
1.23973
1.29051
1.3412
1.39178
1.4422
1.49241
1.54238
1.59206
1.64141
1.69037
1.73892
1.78699
1.83455
1.88156
1.92796
1.97372
2.01878
2.0631
2.10664
2.14935
2.1912
2.23213
2.2721
2.31107
2.349
2.38585
2.42158
2.45615
2.48952
2.52165
2.55252
2.58208
2.61031
2.63718
2.66265
2.6867
2.7093
2.73044
2.75009
2.76823
2.78485
2.79993
2.81347
2.82545
2.83588
2.84474
2.85203
2.85777
2.86195
2.86458
2.86567
2.86523
2.86328
2.85982
2.85487
2.84845
2.84056
2.83123
-0.756126
-0.765059
-0.77257
-0.778677
-0.7834
-0.78676
-0.788777
-0.789472
-0.788864
-0.786969
-0.783804
-0.779382
-0.773718
-0.766822
-0.758705
-0.749377
-0.738847
-0.727124
-0.714216
-0.700131
-0.684878
-0.668465
-0.650901
-0.632194
-0.612353
-0.591389
-0.569311
-0.54613
-0.521856
-0.496503
-0.470081
-0.442604
-0.414085
-0.384539
-0.35398
-0.322423
-0.289885
-0.256383
-0.221933
-0.186554
-0.150265
-0.113086
-0.0750352
-0.0361348
0.0035938
0.0441284
0.0854461
0.127523
0.170335
0.213857
0.258063
0.302926
0.348419
0.394513
0.441181
0.488392
0.536116
0.584322
0.632978
0.682051
0.731508
0.781315
0.831437
0.881839
0.932484
0.983334
1.03435
1.0855
1.13674
1.18803
1.23933
1.2906
1.3418
1.39289
1.44382
1.49454
1.54503
1.59522
1.64509
1.69457
1.74364
1.79223
1.84031
1.88783
1.93475
1.98101
2.02658
2.07141
2.11544
2.15865
2.20097
2.24238
2.28282
2.32225
2.36063
2.39791
2.43407
2.46905
2.50282
2.53534
2.56658
2.5965
2.62507
2.65226
2.67803
2.70237
2.72524
2.74663
2.7665
2.78486
2.80166
2.81691
2.8306
2.8427
2.85323
2.86217
2.86952
2.87529
2.87949
2.88211
2.88317
2.88268
2.88066
2.87711
2.87207
2.86553
2.85753
2.84807
-0.773509
-0.782554
-0.790168
-0.796367
-0.80117
-0.804597
-0.806669
-0.807404
-0.806823
-0.804942
-0.801778
-0.797344
-0.791655
-0.784722
-0.776556
-0.767168
-0.756567
-0.744761
-0.731761
-0.717574
-0.702208
-0.685673
-0.667977
-0.649129
-0.629139
-0.608015
-0.585769
-0.562411
-0.537951
-0.512403
-0.485778
-0.458088
-0.429348
-0.399572
-0.368774
-0.33697
-0.304175
-0.270408
-0.235684
-0.200022
-0.163442
-0.125961
-0.0876008
-0.0483819
-0.00832567
0.0325455
0.0742086
0.11664
0.159815
0.203709
0.248296
0.293549
0.339441
0.385943
0.433027
0.480662
0.52882
0.577467
0.626573
0.676105
0.726028
0.776309
0.826913
0.877804
0.928945
0.9803
1.03183
1.08349
1.13526
1.18708
1.23891
1.29072
1.34246
1.3941
1.44558
1.49686
1.5479
1.59865
1.64907
1.69912
1.74874
1.7979
1.84654
1.89462
1.94209
1.9889
2.03502
2.08039
2.12496
2.16869
2.21154
2.25346
2.2944
2.33433
2.37319
2.41095
2.44756
2.48299
2.51719
2.55013
2.58177
2.61207
2.64101
2.66854
2.69465
2.71929
2.74246
2.76411
2.78424
2.80281
2.81982
2.83526
2.8491
2.86134
2.87198
2.881
2.88842
2.89423
2.89845
2.90106
2.9021
2.90157
2.89948
2.89586
2.89071
2.88407
2.87594
2.86635
-0.792334
-0.80149
-0.809205
-0.815493
-0.820373
-0.823865
-0.825987
-0.826761
-0.826203
-0.824332
-0.821164
-0.816714
-0.810995
-0.80402
-0.795799
-0.786345
-0.775665
-0.763771
-0.75067
-0.736371
-0.720884
-0.704217
-0.686378
-0.667378
-0.647225
-0.625929
-0.603501
-0.579951
-0.555291
-0.529532
-0.502686
-0.474767
-0.445788
-0.415763
-0.384706
-0.352634
-0.319563
-0.285508
-0.250488
-0.214521
-0.177625
-0.139819
-0.101124
-0.0615614
-0.0211516
0.0200827
0.0621186
0.104932
0.148499
0.192795
0.237792
0.283465
0.329787
0.376728
0.42426
0.472353
0.520977
0.5701
0.61969
0.669714
0.72014
0.770931
0.822053
0.87347
0.925146
0.977042
1.02912
1.08134
1.13367
1.18605
1.23846
1.29085
1.34318
1.3954
1.44747
1.49935
1.55098
1.60234
1.65336
1.70401
1.75424
1.804
1.85324
1.90191
1.94998
1.99739
2.04409
2.09004
2.13519
2.17949
2.2229
2.26537
2.30686
2.34731
2.3867
2.42496
2.46207
2.49798
2.53264
2.56603
2.5981
2.62881
2.65814
2.68605
2.71251
2.73749
2.76096
2.78291
2.8033
2.82212
2.83935
2.85497
2.86899
2.88137
2.89213
2.90126
2.90875
2.91461
2.91884
2.92146
2.92248
2.92191
2.91976
2.91606
2.91082
2.90407
2.89582
2.88609
-0.812609
-0.821877
-0.829692
-0.836069
-0.841025
-0.844579
-0.846749
-0.847557
-0.847019
-0.845155
-0.841979
-0.837508
-0.831755
-0.824732
-0.816451
-0.806924
-0.796159
-0.784168
-0.770958
-0.75654
-0.740921
-0.724111
-0.70612
-0.686955
-0.666627
-0.645146
-0.622522
-0.598766
-0.573889
-0.547903
-0.52082
-0.492654
-0.463417
-0.433124
-0.40179
-0.36943
-0.336061
-0.301698
-0.266359
-0.230063
-0.192828
-0.154673
-0.115619
-0.0756866
-0.0348971
0.0067271
0.0491631
0.092387
0.136374
0.1811
0.226538
0.272662
0.319444
0.366856
0.414868
0.463451
0.512575
0.562207
0.612316
0.662869
0.713831
0.765169
0.816846
0.868827
0.921074
0.97355
1.02622
1.07903
1.13196
1.18495
1.23798
1.29098
1.34394
1.39679
1.44949
1.502
1.55428
1.60628
1.65795
1.70924
1.76011
1.81051
1.8604
1.90972
1.95842
2.00646
2.0538
2.10037
2.14614
2.19105
2.23506
2.27812
2.32019
2.36121
2.40115
2.43996
2.4776
2.51402
2.54918
2.58304
2.61557
2.64673
2.67648
2.70479
2.73163
2.75696
2.78077
2.80302
2.8237
2.84278
2.86025
2.87608
2.89028
2.90282
2.91371
2.92294
2.93051
2.93643
2.9407
2.94333
2.94433
2.94371
2.94151
2.93773
2.9324
2.92553
2.91716
2.9073
-0.834343
-0.843726
-0.851643
-0.858109
-0.86314
-0.866754
-0.868971
-0.86981
-0.86929
-0.867428
-0.864241
-0.859744
-0.853952
-0.846876
-0.838529
-0.828922
-0.818066
-0.805969
-0.792643
-0.778095
-0.762335
-0.745372
-0.727216
-0.707875
-0.68736
-0.665681
-0.642847
-0.61887
-0.593761
-0.567532
-0.540195
-0.511764
-0.482251
-0.451672
-0.420041
-0.387372
-0.353683
-0.318991
-0.283311
-0.246663
-0.209066
-0.170538
-0.131099
-0.0907718
-0.0495764
-0.00753553
0.0353279
0.0789901
0.123427
0.168612
0.214521
0.261126
0.308399
0.356313
0.404838
0.453944
0.503601
0.553777
0.604439
0.655555
0.707091
0.759011
0.81128
0.863861
0.916718
0.969812
1.0231
1.07655
1.13012
1.18377
1.23744
1.29111
1.34473
1.39825
1.45163
1.50482
1.55779
1.61047
1.66282
1.7148
1.76636
1.81745
1.86802
1.91803
1.96741
2.01613
2.06414
2.11138
2.1578
2.20337
2.24802
2.29171
2.3344
2.37603
2.41657
2.45595
2.49415
2.53112
2.56681
2.60119
2.63421
2.66584
2.69604
2.72478
2.75202
2.77774
2.8019
2.82448
2.84546
2.86482
2.88254
2.8986
2.91299
2.92571
2.93674
2.94609
2.95375
2.95973
2.96403
2.96667
2.96766
2.96701
2.96475
2.96089
2.95546
2.94849
2.93999
2.92998
-0.85755
-0.86705
-0.875071
-0.881627
-0.886732
-0.890407
-0.892669
-0.893538
-0.893032
-0.89117
-0.887968
-0.883441
-0.877604
-0.87047
-0.86205
-0.852358
-0.841402
-0.829192
-0.81574
-0.801054
-0.785143
-0.768017
-0.749685
-0.730156
-0.709441
-0.687549
-0.664491
-0.640278
-0.614922
-0.588434
-0.560826
-0.532113
-0.502306
-0.471421
-0.439473
-0.406476
-0.372447
-0.337402
-0.30136
-0.264337
-0.226353
-0.187428
-0.14758
-0.106832
-0.0652047
-0.0227204
0.020598
0.0647265
0.109641
0.155315
0.201724
0.248841
0.296637
0.345085
0.394155
0.443817
0.494041
0.544794
0.596045
0.647759
0.699903
0.752442
0.80534
0.85856
0.912064
0.965815
1.01977
1.0739
1.12815
1.18248
1.23685
1.29122
1.34555
1.39978
1.45388
1.5078
1.56148
1.6149
1.66798
1.7207
1.77299
1.82481
1.87611
1.92684
1.97695
2.02639
2.07511
2.12306
2.17019
2.21644
2.26178
2.30615
2.34949
2.39177
2.43294
2.47295
2.51175
2.5493
2.58556
2.62048
2.65402
2.68616
2.71683
2.74603
2.7737
2.79982
2.82436
2.8473
2.86861
2.88826
2.90625
2.92255
2.93715
2.95005
2.96124
2.97071
2.97846
2.98451
2.98886
2.99151
2.99249
2.99181
2.9895
2.98556
2.98004
2.97294
2.96431
2.95415
-0.88224
-0.891863
-0.899991
-0.906638
-0.91182
-0.915554
-0.91786
-0.918757
-0.918264
-0.916398
-0.913177
-0.908616
-0.90273
-0.895532
-0.887034
-0.877248
-0.866185
-0.853856
-0.840269
-0.825435
-0.809363
-0.792062
-0.773543
-0.753814
-0.732886
-0.710768
-0.687472
-0.663009
-0.637389
-0.610626
-0.58273
-0.553717
-0.523598
-0.492388
-0.460103
-0.426757
-0.392367
-0.356949
-0.320521
-0.283101
-0.244707
-0.20536
-0.165078
-0.123884
-0.0817984
-0.0388437
0.00495701
0.0495799
0.0950005
0.141194
0.188133
0.235791
0.284142
0.333155
0.382803
0.433054
0.483878
0.535243
0.587117
0.639465
0.692254
0.745449