# vtk DataFile Version 2.0
Lid-driven cavity
ASCII
DATASET STRUCTURED_POINTS
DIMENSIONS 128 128 1
ORIGIN 0.00390625 0.00390625 0
SPACING 0.0078125 0.0078125 1
POINT_DATA 16384
SCALARS pressure double 1
LOOKUP_TABLE default
1.22365
1.22173
1.21672
1.2097
1.20174
1.19369
1.18621
1.17977
1.17473
1.17134
1.16977
1.17017
1.1726
1.17714
1.1838
1.19261
1.20356
1.21665
1.23187
1.24919
1.26859
1.29006
1.31356
1.33907
1.36657
1.39603
1.42743
1.46074
1.49593
1.53299
1.5719
1.61262
1.65515
1.69945
1.7455
1.79329
1.84279
1.89397
1.94682
2.00131
2.05741
2.1151
2.17436
2.23515
2.29744
2.36121
2.42642
2.49304
2.56104
2.63037
2.701
2.77289
2.846
2.92027
2.99567
3.07215
3.14966
3.22814
3.30754
3.38781
3.46887
3.55068
3.63317
3.71627
3.79992
3.88404
3.96856
4.05341
4.13852
4.2238
4.30917
4.39456
4.47987
4.56502
4.64993
4.7345
4.81865
4.90227
4.98529
5.06759
5.14909
5.22969
5.30929
5.38781
5.46513
5.54117
5.61583
5.68902
5.76064
5.83059
5.8988
5.96516
6.02959
6.09201
6.15234
6.21049
6.26639
6.31997
6.37115
6.41987
6.46607
6.50969
6.55068
6.58899
6.62458
6.65741
6.68746
6.7147
6.7391
6.76068
6.77942
6.79533
6.80844
6.81878
6.8264
6.83137
6.83378
6.83376
6.83144
6.82704
6.82081
6.81307
6.80427
6.79497
6.78591
6.77805
6.77253
6.7705
1.22555
1.22363
1.21942
1.2137
1.20726
1.20076
1.19474
1.18965
1.1858
1.18344
1.18277
1.18393
1.18699
1.19205
1.19914
1.20828
1.21949
1.23277
1.24811
1.26552
1.28496
1.30642
1.32989
1.35534
1.38275
1.4121
1.44336
1.47652
1.51156
1.54844
1.58716
1.62768
1.66999
1.71406
1.75988
1.80742
1.85667
1.90758
1.96016
2.01436
2.07017
2.12755
2.18649
2.24695
2.30891
2.37233
2.43718
2.50343
2.57104
2.63998
2.7102
2.78167
2.85435
2.92818
3.00313
3.07914
3.15617
3.23416
3.31306
3.39281
3.47336
3.55463
3.63657
3.71911
3.80219
3.88573
3.96967
4.05392
4.13842
4.22308
4.30783
4.39258
4.47726
4.56177
4.64603
4.72995
4.81343
4.8964
4.97875
5.06039
5.14123
5.22117
5.30012
5.37798
5.45465
5.53006
5.60408
5.67665
5.74766
5.81701
5.88464
5.95043
6.01432
6.07621
6.13603
6.1937
6.24914
6.30228
6.35306
6.40142
6.44729
6.49061
6.53135
6.56946
6.60489
6.63761
6.66761
6.69485
6.71933
6.74105
6.76001
6.77623
6.78974
6.80058
6.80881
6.81451
6.81778
6.81874
6.81757
6.81446
6.80967
6.80353
6.79644
6.78891
6.78157
6.77515
6.7705
6.76847
1.23056
1.22784
1.22362
1.21844
1.21284
1.20734
1.20236
1.19827
1.19536
1.19386
1.19395
1.19576
1.19939
1.20492
1.2124
1.22187
1.23333
1.24681
1.2623
1.27979
1.29929
1.32077
1.34423
1.36963
1.39698
1.42624
1.45739
1.49043
1.52532
1.56205
1.60059
1.64093
1.68305
1.72692
1.77253
1.81985
1.86886
1.91953
1.97185
2.02579
2.08133
2.13844
2.19709
2.25725
2.3189
2.382
2.44652
2.51244
2.5797
2.64828
2.71814
2.78924
2.86153
2.93497
3.00951
3.08511
3.16171
3.23927
3.31772
3.39702
3.4771
3.5579
3.63936
3.72141
3.80399
3.88702
3.97044
4.05417
4.13814
4.22226
4.30647
4.39068
4.4748
4.55875
4.64245
4.7258
4.80872
4.89112
4.9729
5.05397
5.13424
5.21362
5.29201
5.36931
5.44543
5.52029
5.59378
5.66581
5.7363
5.80515
5.87227
5.93759
6.00101
6.06245
6.12184
6.1791
6.23415
6.28694
6.33738
6.38543
6.43102
6.4741
6.51463
6.55256
6.58787
6.62051
6.65047
6.67774
6.7023
6.72416
6.74333
6.75983
6.77369
6.78497
6.79374
6.80006
6.80406
6.80585
6.80562
6.80354
6.79988
6.79493
6.78905
6.78267
6.77629
6.77048
6.76584
6.76296
1.2376
1.23356
1.22878
1.22358
1.21833
1.21339
1.20908
1.20571
1.2035
1.20267
1.20338
1.20575
1.20987
1.21582
1.22366
1.23342
1.24513
1.2588
1.27443
1.29204
1.3116
1.33311
1.35657
1.38195
1.40925
1.43844
1.46951
1.50243
1.5372
1.5738
1.61219
1.65238
1.69432
1.73801
1.78343
1.83054
1.87934
1.9298
1.98189
2.0356
2.09089
2.14774
2.20613
2.26603
2.3274
2.39022
2.45445
2.52006
2.58702
2.65528
2.72482
2.79558
2.86753
2.94062
3.0148
3.09003
3.16627
3.24344
3.32151
3.40041
3.48008
3.56047
3.64152
3.72314
3.80529
3.88789
3.97087
4.05415
4.13767
4.22133
4.30508
4.38882
4.47247
4.55595
4.63918
4.72205
4.8045
4.88642
4.96772
5.04832
5.12811
5.20702
5.28493
5.36177
5.43743
5.51183
5.58488
5.65647
5.72652
5.79495
5.86167
5.92658
5.98961
6.05069
6.10972
6.16664
6.22137
6.27386
6.32403
6.37182
6.41719
6.46007
6.50044
6.53824
6.57344
6.60603
6.63597
6.66327
6.68791
6.7099
6.72925
6.746
6.76018
6.77184
6.78105
6.7879
6.7925
6.79497
6.79547
6.7942
6.79137
6.78725
6.78215
6.77642
6.77045
6.76464
6.75942
6.75512
1.24561
1.24002
1.23436
1.22878
1.22351
1.21879
1.21486
1.21195
1.21025
1.20992
1.21112
1.21393
1.21847
1.22479
1.23295
1.24298
1.25491
1.26876
1.28454
1.30225
1.32189
1.34345
1.36692
1.39229
1.41955
1.44869
1.47969
1.51253
1.5472
1.58368
1.62194
1.66198
1.70378
1.74731
1.79255
1.83949
1.8881
1.93837
1.99026
2.04375
2.09883
2.15546
2.21361
2.27327
2.3344
2.39696
2.46094
2.52628
2.59297
2.66096
2.73021
2.80068
2.87233
2.94512
3.01899
3.09391
3.16982
3.24667
3.32441
3.40297
3.4823
3.56235
3.64304
3.72431
3.80609
3.88833
3.97094
4.05385
4.13698
4.22027
4.30363
4.38699
4.47026
4.55335
4.63619
4.71868
4.80073
4.88226
4.96318
5.04339
5.1228
5.20132
5.27886
5.35532
5.43062
5.50465
5.57733
5.64857
5.71828
5.78637
5.85276
5.91735
5.98008
6.04085
6.0996
6.15625
6.21074
6.26298
6.31293
6.36053
6.40572
6.44845
6.48869
6.52639
6.56152
6.59407
6.62401
6.65134
6.67606
6.69817
6.71769
6.73465
6.74909
6.76107
6.77066
6.77794
6.78301
6.78601
6.78707
6.78637
6.78412
6.78053
6.77587
6.7704
6.76443
6.75823
6.75206
6.7461
1.25374
1.24655
1.23984
1.23366
1.22812
1.22338
1.2196
1.21695
1.21558
1.21561
1.21717
1.22035
1.22522
1.23184
1.24028
1.25055
1.26269
1.27671
1.29263
1.31044
1.33015
1.35176
1.37526
1.40064
1.42788
1.45698
1.48792
1.52069
1.55528
1.59166
1.62982
1.66974
1.7114
1.75479
1.79989
1.84667
1.89512
1.94521
1.99692
2.05023
2.10512
2.16155
2.21951
2.27896
2.33987
2.40222
2.46597
2.53109
2.59754
2.66529
2.73429
2.80452
2.87592
2.94845
3.02206
3.09672
3.17236
3.24894
3.3264
3.40469
3.48374
3.5635
3.6439
3.72488
3.80637
3.88831
3.97062
4.05323
4.13607
4.21906
4.30212
4.38517
4.46813
4.55093
4.63346
4.71565
4.7974
4.87863
4.95925
5.03916
5.11828
5.19651
5.27375
5.34993
5.42494
5.4987
5.5711
5.64208
5.71152
5.77936
5.84549
5.90985
5.97234
6.03289
6.09143
6.14788
6.20217
6.25424
6.30403
6.35147
6.39653
6.43915
6.4793
6.51693
6.55202
6.58455
6.61451
6.64187
6.66666
6.68888
6.70854
6.72568
6.74034
6.75258
6.76247
6.77008
6.77552
6.7789
6.78036
6.78006
6.77816
6.77486
6.77036
6.76488
6.75863
6.75179
6.7445
6.73683
1.26134
1.25261
1.2448
1.23788
1.23192
1.22698
1.22318
1.22064
1.21945
1.21972
1.22154
1.22498
1.23012
1.23699
1.24566
1.25614
1.26846
1.28263
1.29868
1.3166
1.33639
1.35805
1.38158
1.40697
1.43421
1.46328
1.49419
1.5269
1.56142
1.59772
1.63579
1.67561
1.71716
1.76043
1.8054
1.85205
1.90036
1.9503
2.00186
2.05502
2.10974
2.166
2.22379
2.28306
2.34379
2.40595
2.46951
2.53444
2.6007
2.66825
2.73705
2.80707
2.87827
2.95059
3.024
3.09844
3.17387
3.25023
3.32747
3.40553
3.48436
3.5639
3.64408
3.72484
3.80611
3.88782
3.96991
4.05229
4.1349
4.21767
4.3005
4.38333
4.46607
4.54864
4.63096
4.71293
4.79447
4.87548
4.95589
5.03559
5.1145
5.19252
5.26957
5.34555
5.42036
5.49392
5.56614
5.63693
5.7062
5.77385
5.83982
5.90401
5.96634
6.02674
6.08513
6.14144
6.19561
6.24756
6.29723
6.34459
6.38956
6.43211
6.4722
6.50979
6.54486
6.57739
6.60737
6.63478
6.65963
6.68194
6.70172
6.71902
6.73385
6.7463
6.75641
6.76427
6.76997
6.77362
6.77534
6.77527
6.77355
6.77034
6.76581
6.76012
6.7534
6.74578
6.73732
6.72801
1.26792
1.25775
1.24884
1.24115
1.23466
1.22941
1.22547
1.22291
1.22179
1.22219
1.22418
1.22782
1.23315
1.24023
1.24908
1.25974
1.27222
1.28653
1.30269
1.32071
1.34057
1.36229
1.38586
1.41127
1.43851
1.46757
1.49845
1.53113
1.56559
1.60183
1.63982
1.67956
1.72103
1.7642
1.80906
1.8556
1.90379
1.95361
2.00505
2.05807
2.11266
2.16878
2.22642
2.28555
2.34613
2.40815
2.47155
2.53633
2.60243
2.66982
2.73847
2.80833
2.87936
2.95152
3.02476
3.09904
3.17431
3.25051
3.32759
3.40549
3.48416
3.56354
3.64356
3.72416
3.80528
3.88683
3.96877
4.051
4.13346
4.21607
4.29876
4.38145
4.46405
4.54648
4.62866
4.7105
4.7919
4.87279
4.95307
5.03265
5.11144
5.18934
5.26627
5.34214
5.41684
5.49029
5.56241
5.63309
5.70226
5.76982
5.83569
5.89978
5.96203
6.02234
6.08066
6.13689
6.19098
6.24287
6.29249
6.33979
6.38473
6.42725
6.46731
6.5049
6.53997
6.57252
6.60252
6.62998
6.6549
6.67729
6.69717
6.71458
6.72956
6.74215
6.75243
6.76046
6.76633
6.77015
6.77201
6.77204
6.77036
6.7671
6.76239
6.75634
6.74906
6.74061
6.731
6.72018
1.27311
1.26161
1.25167
1.24318
1.23612
1.2305
1.22633
1.22365
1.22252
1.22297
1.22506
1.22883
1.23431
1.24154
1.25054
1.26134
1.27395
1.28838
1.30465
1.32275
1.34269
1.36447
1.38808
1.41351
1.44077
1.46983
1.50069
1.53334
1.56777
1.60396
1.6419
1.68157
1.72297
1.76606
1.81084
1.85729
1.90539
1.95511
2.00645
2.05936
2.11384
2.16986
2.22739
2.2864
2.34687
2.40877
2.47206
2.53672
2.6027
2.66998
2.73851
2.80825
2.87917
2.95122
3.02435
3.09852
3.17367
3.24977
3.32674
3.40454
3.48311
3.56239
3.64232
3.72283
3.80385
3.88533
3.96718
4.04933
4.13172
4.21426
4.29688
4.3795
4.46204
4.54442
4.62654
4.70833
4.78968
4.87053
4.95076
5.03031
5.10906
5.18693
5.26383
5.33966
5.41434
5.48776
5.55985
5.63051
5.69965
5.76719
5.83304
5.89712
5.95935
6.01965
6.07795
6.13417
6.18825
6.24013
6.28974
6.33704
6.38197
6.4245
6.46458
6.50218
6.53728
6.56985
6.5999
6.62741
6.65239
6.67485
6.69482
6.71232
6.72739
6.74009
6.75048
6.75862
6.76459
6.76848
6.77039
6.77042
6.76867
6.76524
6.76025
6.75377
6.74587
6.73657
6.72588
6.7137
1.27662
1.26393
1.25301
1.24375
1.23611
1.23007
1.22562
1.22278
1.22156
1.222
1.22413
1.22796
1.23354
1.24088
1.25
1.26091
1.27363
1.28817
1.30453
1.32272
1.34273
1.36456
1.38821
1.41368
1.44095
1.47002
1.50088
1.53352
1.56792
1.60408
1.64198
1.68161
1.72295
1.76599
1.81071
1.8571
1.90512
1.95477
2.00603
2.05887
2.11327
2.16921
2.22666
2.28559
2.34598
2.40779
2.47101
2.53558
2.60149
2.66869
2.73715
2.80682
2.87767
2.94965
3.02272
3.09683
3.17193
3.24797
3.3249
3.40266
3.48119
3.56044
3.64033
3.72082
3.80182
3.88328
3.96512
4.04727
4.12965
4.21219
4.29483
4.37746
4.46002
4.54242
4.62457
4.70639
4.78778
4.86866
4.94894
5.02853
5.10733
5.18525
5.2622
5.33808
5.41281
5.4863
5.55844
5.62916
5.69835
5.76595
5.83185
5.89598
5.95826
6.01861
6.07695
6.13322
6.18734
6.23927
6.28892
6.33626
6.38124
6.42381
6.46393
6.50157
6.53672
6.56934
6.59944
6.62701
6.65204
6.67457
6.6946
6.71217
6.72731
6.74008
6.75052
6.75871
6.76472
6.76862
6.77049
6.77044
6.76853
6.76487
6.75953
6.75257
6.74403
6.73393
6.72223
6.70885
1.27824
1.26449
1.25266
1.24268
1.23446
1.22798
1.22322
1.22016
1.21882
1.2192
1.22131
1.22518
1.23082
1.23823
1.24743
1.25844
1.27125
1.28587
1.30232
1.32057
1.34065
1.36254
1.38623
1.41173
1.43903
1.46812
1.49899
1.53162
1.56602
1.60216
1.64004
1.67965
1.72096
1.76396
1.80864
1.85498
1.90296
1.95256
2.00377
2.05656
2.11091
2.1668
2.2242
2.28308
2.34343
2.4052
2.46837
2.5329
2.59877
2.66594
2.73437
2.80401
2.87484
2.9468
3.01986
3.09396
3.16906
3.24511
3.32205
3.39982
3.47837
3.55765
3.63758
3.7181
3.79916
3.88067
3.96257
4.04478
4.12724
4.20986
4.29258
4.37531
4.45796
4.54047
4.62273
4.70466
4.78617
4.86717
4.94758
5.02729
5.10622
5.18427
5.26136
5.33738
5.41224
5.48586
5.55814
5.62899
5.69831
5.76603
5.83206
5.89632
5.95871
6.01917
6.07763
6.134
6.18823
6.24024
6.28999
6.33742
6.38247
6.42512
6.46531
6.50303
6.53824
6.57093
6.60109
6.62872
6.65382
6.6764
6.69648
6.7141
6.72928
6.74208
6.75255
6.76074
6.76672
6.77057
6.77235
6.77215
6.77004
6.76609
6.76036
6.75289
6.74373
6.73286
6.72024
6.70581
1.27782
1.2631
1.25046
1.23978
1.23101
1.2241
1.219
1.21571
1.21421
1.21449
1.21656
1.22043
1.22608
1.23354
1.2428
1.25388
1.26676
1.28146
1.29797
1.3163
1.33643
1.35837
1.38212
1.40766
1.43499
1.4641
1.49498
1.52763
1.56203
1.59818
1.63605
1.67565
1.71694
1.75993
1.80459
1.85091
1.89887
1.94845
1.99964
2.05241
2.10674
2.16261
2.21999
2.27886
2.33919
2.40095
2.46411
2.52865
2.59452
2.6617
2.73014
2.7998
2.87066
2.94265
3.01575
3.0899
3.16505
3.24115
3.31816
3.39601
3.47464
3.55401
3.63404
3.71467
3.79584
3.87747
3.9595
4.04186
4.12446
4.20724
4.29012
4.37302
4.45585
4.53854
4.62099
4.70311
4.78482
4.86603
4.94664
5.02657
5.10571
5.18398
5.26128
5.33752
5.4126
5.48643
5.55892
5.62997
5.69951
5.76743
5.83365
5.89809
5.96067
6.02131
6.07994
6.13647
6.19085
6.24301
6.2929
6.34046
6.38563
6.42839
6.46869
6.50651
6.54181
6.57458
6.60481
6.6325
6.65766
6.68029
6.70042
6.71806
6.73327
6.74607
6.75652
6.76468
6.7706
6.77435
6.77599
6.7756
6.77324
6.76896
6.76282
6.75486
6.74509
6.7335
6.72007
6.70472
1.27521
1.25964
1.24625
1.23494
1.22564
1.2183
1.21287
1.20933
1.20765
1.20781
1.20981
1.21364
1.21929
1.22677
1.23608
1.2472
1.26014
1.2749
1.29147
1.30986
1.33005
1.35204
1.37584
1.40142
1.42879
1.45793
1.48884
1.52152
1.55594
1.5921
1.62998
1.66958
1.71089
1.75388
1.79854
1.84487
1.89283
1.94242
1.99361
2.04638
2.10072
2.1566
2.214
2.27288
2.33324
2.39503
2.45822
2.5228
2.58872
2.65594
2.72444
2.79417
2.8651
2.93717
3.01036
3.0846
3.15986
3.23608
3.31321
3.39119
3.46997
3.54949
3.62969
3.71049
3.79184
3.87367
3.95591
4.03847
4.1213
4.20431
4.28743
4.37057
4.45366
4.53661
4.61933
4.70173
4.78372
4.86522
4.94612
5.02633
5.10577
5.18434
5.26193
5.33847
5.41384
5.48797
5.56075
5.63209
5.7019
5.77009
5.83658
5.90128
5.96411
6.02499
6.08384
6.1406
6.19519
6.24755
6.29762
6.34534
6.39068
6.43359
6.47402
6.51196
6.54737
6.58024
6.61056
6.63833
6.66354
6.68622
6.70638
6.72404
6.73925
6.75203
6.76245
6.77053
6.77636
6.77997
6.78144
6.78083
6.77818
6.77356
6.76701
6.75855
6.74821
6.73597
6.7218
6.70565
1.27033
1.254
1.23992
1.22803
1.21823
1.21048
1.20473
1.20093
1.19906
1.19908
1.20099
1.20477
1.2104
1.21788
1.2272
1.23836
1.25135
1.26616
1.28278
1.30122
1.32147
1.34352
1.36736
1.39299
1.4204
1.44959
1.48054
1.51325
1.5477
1.58389
1.6218
1.66143
1.70276
1.74578
1.79047
1.83681
1.8848
1.93442
1.98564
2.03845
2.09283
2.14875
2.2062
2.26514
2.32555
2.3874
2.45067
2.51532
2.58133
2.64865
2.71725
2.78709
2.85814
2.93034
3.00367
3.07806
3.15348
3.22987
3.30719
3.38536
3.46435
3.54409
3.62451
3.70555
3.78716
3.86925
3.95176
4.03461
4.11773
4.20105
4.28448
4.36795
4.45138
4.53466
4.61773
4.70049
4.78285
4.86471
4.94598
5.02657
5.10639
5.18533
5.2633
5.34021
5.41596
5.49046
5.5636
5.6353
5.70547
5.77401
5.84083
5.90586
5.969
6.03018
6.08932
6.14635
6.2012
6.25381
6.30411
6.35205
6.39759
6.44067
6.48127
6.51936
6.5549
6.58789
6.6183
6.64615
6.67143
6.69415
6.71434
6.73201
6.7472
6.75995
6.7703
6.7783
6.784
6.78746
6.78873
6.78787
6.78492
6.77995
6.77299
6.76406
6.75317
6.74033
6.72551
6.70866
1.2631
1.24607
1.23138
1.21895
1.20869
1.20056
1.19448
1.19043
1.18836
1.18824
1.19005
1.19376
1.19935
1.20682
1.21615
1.22733
1.24035
1.2552
1.27187
1.29036
1.31066
1.33276
1.35666
1.38234
1.40981
1.43904
1.47004
1.50279
1.53729
1.57352
1.61148
1.65115
1.69253
1.73559
1.78033
1.82673
1.87477
1.92444
1.97572
2.0286
2.08304
2.13904
2.19656
2.25559
2.31609
2.37805
2.44143
2.5062
2.57233
2.63979
2.70853
2.77853
2.84975
2.92214
2.99565
3.07025
3.14589
3.22251
3.30006
3.37849
3.45775
3.53776
3.61848
3.69983
3.78175
3.86418
3.94703
4.03024
4.11373
4.19743
4.28126
4.36513
4.44897
4.53268
4.61618
4.69937
4.78217
4.86448
4.94621
5.02726
5.10753
5.18694
5.26537
5.34273
5.41894
5.49388
5.56747
5.6396
5.7102
5.77915
5.84638
5.9118
5.97532
6.03686
6.09635
6.15371
6.20888
6.26177
6.31235
6.36055
6.40632
6.44962
6.49042
6.52868
6.56437
6.59749
6.62802
6.65596
6.6813
6.70407
6.72428
6.74195
6.75712
6.76982
6.78009
6.78798
6.79353
6.79681
6.79786
6.79674
6.7935
6.78817
6.7808
6.77142
6.76003
6.74665
6.73124
6.71378
1.25344
1.2358
1.22055
1.20762
1.19693
1.18843
1.18206
1.17776
1.17549
1.17522
1.17691
1.18055
1.1861
1.19354
1.20287
1.21406
1.2271
1.24199
1.25871
1.27724
1.2976
1.31975
1.3437
1.36944
1.39697
1.42626
1.45731
1.49013
1.52468
1.56098
1.599
1.63873
1.68017
1.7233
1.7681
1.81457
1.86269
1.91245
1.96382
2.01678
2.07133
2.12743
2.18507
2.24421
2.30485
2.36694
2.43047
2.4954
2.5617
2.62934
2.69828
2.76848
2.83992
2.91253
2.98629
3.06115
3.13705
3.21396
3.29181
3.37056
3.45014
3.5305
3.61158
3.6933
3.77561
3.85844
3.94171
4.02535
4.10929
4.19345
4.27774
4.3621
4.44643
4.53064
4.61465
4.69836
4.78169
4.86453
4.94679
5.02838
5.10919
5.18913
5.26811
5.34601
5.42275
5.49821
5.57232
5.64497
5.71606
5.7855
5.85321
5.91908
5.98305
6.04502
6.10491
6.16266
6.21818
6.27143
6.32232
6.37082
6.41686
6.46042
6.50144
6.53989
6.57577
6.60903
6.63969
6.66772
6.69314
6.71596
6.73619
6.75386
6.76899
6.78163
6.7918
6.79957
6.80497
6.80805
6.80888
6.80748
6.80393
6.79825
6.79049
6.78068
6.76882
6.75494
6.73902
6.72102
1.24132
1.22312
1.20736
1.19397
1.18289
1.17404
1.16738
1.16284
1.16038
1.15996
1.16154
1.16509
1.17058
1.178
1.18732
1.19851
1.21158
1.22649
1.24325
1.26184
1.28224
1.30445
1.32846
1.35427
1.38185
1.41121
1.44234
1.47522
1.50985
1.54622
1.58431
1.62413
1.66565
1.70887
1.75376
1.80033
1.84855
1.89841
1.9499
2.00299
2.05766
2.1139
2.17168
2.23099
2.29179
2.35406
2.41777
2.4829
2.54941
2.61728
2.68645
2.75691
2.82861
2.9015
2.97556
3.05072
3.12696
3.2042
3.28242
3.36154
3.44151
3.52228
3.60378
3.68594
3.76871
3.85201
3.93577
4.01992
4.10437
4.18906
4.27391
4.35882
4.44372
4.52852
4.61312
4.69743
4.78136
4.86482
4.9477
5.02991
5.11134
5.19191
5.2715
5.35002
5.42737
5.50344
5.57815
5.65138
5.72304
5.79305
5.86129
5.9277
5.99217
6.05462
6.11498
6.17317
6.22911
6.28275
6.33401
6.38284
6.4292
6.47304
6.51431
6.553
6.58907
6.6225
6.65329
6.68144
6.70694
6.72981
6.75006
6.76772
6.78281
6.79537
6.80545
6.81308
6.81831
6.82119
6.82178
6.82011
6.81625
6.81023
6.80209
6.79186
6.77958
6.76524
6.74884
6.73038
1.22668
1.20797
1.19175
1.17794
1.16649
1.15732
1.15038
1.14561
1.14296
1.14239
1.14386
1.14733
1.15277
1.16015
1.16945
1.18065
1.19373
1.20868
1.22547
1.2441
1.26456
1.28683
1.31091
1.33678
1.36444
1.39387
1.42508
1.45804
1.49276
1.52922
1.56741
1.60732
1.64894
1.69227
1.73728
1.78397
1.83232
1.88231
1.93394
1.98718
2.04201
2.09842
2.15638
2.21588
2.27688
2.33937
2.40331
2.46868
2.53544
2.60357
2.67303
2.74379
2.8158
2.88903
2.96343
3.03896
3.11557
3.19322
3.27185
3.3514
3.43183
3.51307
3.59506
3.67773
3.76103
3.84487
3.92919
4.01392
4.09897
4.18427
4.26974
4.35529
4.44084
4.5263
4.61157
4.69656
4.78118
4.86534
4.94892
5.03183
5.11397
5.19524
5.27554
5.35476
5.43279
5.50955
5.58493
5.65882
5.73113
5.80177
5.87063
5.93762
6.00267
6.06567
6.12655
6.18524
6.24165
6.29573
6.3474
6.39662
6.44332
6.48747
6.52903
6.56797
6.60426
6.63788
6.66883
6.69709
6.72268
6.7456
6.76587
6.78352
6.79857
6.81106
6.82102
6.82851
6.83357
6.83624
6.83658
6.83464
6.83047
6.82411
6.81561
6.805
6.7923
6.77755
6.76073
6.74184
1.20949
1.19032
1.17367
1.15948
1.14768
1.13821
1.13101
1.12602
1.1232
1.12248
1.12383
1.12722
1.1326
1.13994
1.14923
1.16043
1.17352
1.1885
1.20533
1.22401
1.24452
1.26686
1.291
1.31695
1.34469
1.37421
1.4055
1.43856
1.47338
1.50994
1.54825
1.58828
1.63002
1.67348
1.71863
1.76546
1.81396
1.86412
1.91591
1.96933
2.02435
2.08096
2.13914
2.19886
2.2601
2.32284
2.38704
2.45269
2.51976
2.5882
2.65799
2.72909
2.80146
2.87507
2.94987
3.02582
3.10287
3.18097
3.26007
3.34013
3.42107
3.50284
3.58539
3.66864
3.75253
3.83699
3.92194
4.00732
4.09304
4.17903
4.2652
4.35147
4.43775
4.52395
4.60998
4.69574
4.78113
4.86606
4.95043
5.03412
5.11706
5.19911
5.28019
5.36019
5.439
5.51653
5.59265
5.66729
5.74032
5.81166
5.8812
5.94886
6.01454
6.07815
6.13962
6.19885
6.25579
6.31036
6.36249
6.41212
6.45922
6.50372
6.54559
6.58481
6.62134
6.65517
6.68628
6.71468
6.74036
6.76334
6.78364
6.80128
6.81628
6.82869
6.83854
6.84587
6.85075
6.85321
6.8533
6.85109
6.84661
6.83993
6.83107
6.82009
6.80702
6.79187
6.77466
6.7554
1.18973
1.17012
1.15308
1.13853
1.12641
1.11666
1.10921
1.10402
1.10102
1.10017
1.10141
1.10471
1.11003
1.11734
1.12661
1.13781
1.15092
1.16592
1.18279
1.20152
1.22209
1.2445
1.26872
1.29475
1.32258
1.35219
1.38359
1.41676
1.45169
1.48837
1.5268
1.56697
1.60886
1.65246
1.69777
1.74477
1.79345
1.84379
1.89578
1.94941
2.00466
2.0615
2.11992
2.1799
2.24142
2.30444
2.36896
2.43493
2.50233
2.57112
2.64129
2.71278
2.78556
2.8596
2.93486
3.01128
3.08882
3.16743
3.24707
3.32768
3.4092
3.49158
3.57474
3.65864
3.74319
3.82834
3.914
4.0001
4.08657
4.17332
4.26027
4.34733
4.43443
4.52145
4.60832
4.69492
4.78117
4.86697
4.9522
5.03677
5.12058
5.20351
5.28546
5.36632
5.44598
5.52435
5.60131
5.67676
5.75059
5.8227
5.893
5.96139
6.02777
6.09206
6.15416
6.21401
6.27152
6.32663
6.37926
6.42936
6.47688
6.52177
6.56399
6.60351
6.6403
6.67436
6.70565
6.73419
6.75998
6.78303
6.80335
6.82098
6.83593
6.84826
6.85799
6.86517
6.86986
6.8721
6.87195
6.86946
6.86469
6.85768
6.84849
6.83715
6.82372
6.80821
6.79064
6.77103
1.16735
1.14735
1.12994
1.11505
1.10263
1.09262
1.08494
1.07955
1.07639
1.0754
1.07654
1.07976
1.08502
1.09229
1.10154
1.11275
1.12587
1.1409
1.15782
1.1766
1.19724
1.21972
1.24402
1.27014
1.29807
1.32779
1.3593
1.39259
1.42765
1.46447
1.50305
1.54337
1.58542
1.62919
1.67468
1.72187
1.77075
1.82131
1.87353
1.92739
1.98289
2.04
2.0987
2.15897
2.2208
2.28415
2.34901
2.41534
2.48312
2.55232
2.6229
2.69483
2.76808
2.8426
2.91835
2.9953
3.07339
3.15258
3.23281
3.31403
3.3962
3.47923
3.56309
3.64769
3.73298
3.81888
3.90532
3.99223
4.07951
4.16711
4.25492
4.34286
4.43085
4.51878
4.60656
4.6941
4.78129
4.86804
4.95422
5.03975
5.12452
5.2084
5.2913
5.37311
5.45372
5.53301
5.61088
5.68722
5.76193
5.83489
5.90602
5.97521
6.04236
6.10738
6.17019
6.23071
6.28885
6.34454
6.39772
6.44833
6.49632
6.54162
6.58422
6.62407
6.66116
6.69545
6.72695
6.75564
6.78155
6.80466
6.82502
6.84263
6.85754
6.86978
6.87939
6.88641
6.89091
6.89294
6.89254
6.88977
6.8847
6.87738
6.86786
6.85618
6.8424
6.82655
6.80865
6.78872
1.14234
1.12197
1.10421
1.08901
1.07631
1.06604
1.05815
1.05257
1.04925
1.04813
1.04917
1.05231
1.05752
1.06477
1.074
1.08521
1.09835
1.11342
1.13038
1.14922
1.16993
1.19249
1.21688
1.2431
1.27113
1.30097
1.33261
1.36603
1.40124
1.43821
1.47695
1.51744
1.55967
1.60364
1.64933
1.69674
1.74584
1.79664
1.84911
1.90324
1.95902
2.01643
2.07544
2.13604
2.19822
2.26193
2.32717
2.39391
2.46211
2.53175
2.6028
2.67521
2.74897
2.82402
2.90033
2.97785
3.05654
3.13636
3.21724
3.29915
3.38201
3.46578
3.55039
3.63577
3.72186
3.80859
3.89589
3.98367
4.07185
4.16036
4.24911
4.33801
4.42697
4.5159
4.60469
4.69324
4.78146
4.86924
4.95647
5.04304
5.12885
5.21378
5.29772
5.38056
5.46219
5.54249
5.62135
5.69867
5.77433
5.84822
5.92025
5.9903
6.05829
6.12412
6.1877
6.24894
6.30776
6.3641
6.41788
6.46903
6.51752
6.56329
6.60629
6.6465
6.68389
6.71845
6.75016
6.77903
6.80505
6.82825
6.84864
6.86624
6.8811
6.89325
6.90273
6.9096
6.91391
6.91571
6.91506
6.91203
6.90666
6.89903
6.88919
6.87718
6.86307
6.84689
6.82867
6.80843
1.11468
1.09395
1.07586
1.06036
1.04739
1.03689
1.02879
1.02304
1.01957
1.01833
1.01927
1.02234
1.0275
1.03471
1.04394
1.05515
1.06832
1.08342
1.10044
1.11934
1.14013
1.16277
1.18726
1.21359
1.24174
1.27171
1.30348
1.33705
1.37242
1.40956
1.44847
1.48915
1.53159
1.57577
1.62169
1.66933
1.71869
1.76975
1.8225
1.87693
1.93302
1.99075
2.05011
2.11108
2.17363
2.23775
2.30341
2.37059
2.43925
2.50938
2.58093
2.65388
2.72819
2.80383
2.88074
2.9589
3.03825
3.11875
3.20034
3.28298
3.36661
3.45117
3.5366
3.62283
3.7098
3.79743
3.88565
3.97438
4.06354
4.15305
4.24282
4.33276
4.42278
4.51277
4.60265
4.69231
4.78164
4.87054
4.9589
5.04661
5.13355
5.21961
5.30468
5.38864
5.47137
5.55277
5.63271
5.71108
5.78777
5.86268
5.93568
6.00668
6.07558
6.14227
6.20668
6.2687
6.32827
6.3853
6.43972
6.49147
6.5405
6.58676
6.6302
6.6708
6.70853
6.74337
6.77531
6.80436
6.83051
6.85379
6.87422
6.89182
6.90663
6.91869
6.92804
6.93475
6.93886
6.94044
6.93954
6.93623
6.93057
6.92263
6.91247
6.90015
6.88571
6.86921
6.85069
6.83016
1.08433
1.06327
1.04487
1.02908
1.01586
1.00513
0.996835
0.990912
0.987301
0.985947
0.986796
0.9898
0.994914
1.0021
1.01132
1.02254
1.03574
1.05088
1.06795
1.08693
1.10779
1.13053
1.15513
1.18157
1.20985
1.23996
1.27189
1.30562
1.34115
1.37848
1.41759
1.45848
1.50114
1.54555
1.59172
1.63962
1.68926
1.74061
1.79367
1.84842
1.90485
1.96294
2.02267
2.08404
2.14701
2.21156
2.27768
2.34534
2.41451
2.48517
2.55727
2.6308
2.70572
2.78198
2.85955
2.93839
3.01846
3.0997
3.18206
3.2655
3.34996
3.43538
3.52169
3.60884
3.69675
3.78535
3.87457
3.96432
4.05454
4.14512
4.23599
4.32705
4.41821
4.50937
4.60042
4.69127
4.78181
4.87192
4.9615
5.05042
5.13859
5.22587
5.31216
5.39733
5.48126
5.56384
5.64494
5.72445
5.80226
5.87825
5.9523
6.02432
6.0942
6.16183
6.22713
6.29
6.35037
6.40814
6.46326
6.51565
6.56526
6.61205
6.65596
6.69697
6.73506
6.7702
6.80239
6.83163
6.85793
6.8813
6.90177
6.91936
6.93412
6.94609
6.95532
6.96186
6.96577
6.96712
6.96597
6.96239
6.95644
6.94819
6.93771
6.92507
6.91032
6.89351
6.87469
6.85388
1.05128
1.02989
1.01119
0.995135
0.981664
0.970718
0.962234
0.95615
0.952404
0.95094
0.951704
0.954645
0.959718
0.966882
0.976099
0.987337
1.00056
1.01576
1.03289
1.05194
1.07289
1.09573
1.12044
1.14702
1.17544
1.2057
1.23778
1.27169
1.30742
1.34494
1.38427
1.42538
1.46828
1.51295
1.55938
1.60757
1.6575
1.70917
1.76257
1.81767
1.87447
1.93295
1.99309
2.05489
2.11831
2.18334
2.24995
2.31813
2.38785
2.45907
2.53178
2.60593
2.68149
2.75844
2.83672
2.91629
2.99712
3.07916
3.16236
3.24665
3.332
3.41834
3.5056
3.59373
3.68266
3.7723
3.86259
3.95345
4.0448
4.13654
4.22859
4.32086
4.41324
4.50565
4.59796
4.69009
4.78192
4.87333
4.96422
5.05446
5.14394
5.23254
5.32013
5.4066
5.49182
5.57567
5.65802
5.73876
5.81777
5.89492
5.97011
6.04323
6.11416
6.1828
6.24906
6.31284
6.37406
6.43263
6.48849
6.54157
6.59181
6.63916
6.68358
6.72503
6.7635
6.79897
6.83143
6.86087
6.88732
6.91079
6.9313
6.94889
6.9636
6.97548
6.98457
6.99094
6.99465
6.99577
6.99436
6.9905
6.98425
6.9757
6.96491
6.95195
6.93689
6.91977
6.90065
6.87956
1.0155
0.993797
0.974807
0.958485
0.944776
0.933621
0.924955
0.918715
0.91484
0.913272
0.913955
0.916839
0.921875
0.929023
0.938242
0.9495
0.962764
0.978008
0.995208
1.01434
1.03539
1.05834
1.08318
1.10989
1.13846
1.16888
1.20115
1.23524
1.27117
1.30891
1.34847
1.38983
1.43298
1.47792
1.52465
1.57314
1.6234
1.67541
1.72916
1.78464
1.84184
1.90074
1.96132
2.02358
2.08749
2.15303
2.22018
2.28891
2.35922
2.43105
2.5044
2.57921
2.65548
2.73315
2.81218
2.89255
2.9742
3.05709
3.14117
3.22639
3.31269
3.40001
3.48829
3.57747
3.66748
3.75824
3.84968
3.94172
4.03427
4.12725
4.22057
4.31412
4.40782
4.50155
4.59522
4.68872
4.78193
4.87474
4.96703
5.05868
5.14957
5.23958
5.32857
5.41643
5.50303
5.58824
5.67194
5.75399
5.83429
5.91269
5.9891
6.06339
6.13545
6.20517
6.27246
6.33721
6.39935
6.45878
6.51544
6.56925
6.62015
6.66811
6.71307
6.75499
6.79387
6.82968
6.86242
6.89208
6.91869
6.94226
6.96282
6.98041
6.99507
7.00685
7.01581
7.022
7.0255
7.02638
7.02471
7.02057
7.01402
7.00516
6.99406
6.98078
6.9654
6.94798
6.92857
6.9072
0.97698
0.954961
0.935684
0.919103
0.905163
0.893803
0.88496
0.878571
0.874572
0.872905
0.873513
0.876343
0.881347
0.888483
0.89771
0.908992
0.922299
0.937603
0.954877
0.974102
0.995258
1.01833
1.0433
1.07015
1.09888
1.12948
1.16193
1.19623
1.23238
1.27035
1.31015
1.35177
1.3952
1.44044
1.48748
1.5363
1.58691
1.63928
1.69342
1.7493
1.80693
1.86627
1.92733
1.99008
2.0545
2.12059
2.18831
2.25764
2.32856
2.40105
2.47508
2.55061
2.62762
2.70606
2.7859
2.86711
2.94964
3.03343
3.11846
3.20465
3.29196
3.38033
3.4697
3.55999
3.65115
3.7431
3.83577
3.92906
4.0229
4.1172
4.21186
4.30679
4.40188
4.49704
4.59216
4.68711
4.7818
4.8761
4.96988
5.06304
5.15544
5.24695
5.33744
5.42679
5.51487
5.60154
5.68667
5.77013
5.8518
5.93155
6.00925
6.08479
6.15806
6.22894
6.29733
6.36312
6.42624
6.48659
6.54409
6.59868
6.65031
6.6989
6.74443
6.78686
6.82617
6.86235
6.89538
6.92528
6.95206
6.97574
6.99635
7.01394
7.02854
7.04022
7.04904
7.05505
7.05834
7.05897
7.05703
7.0526
7.04575
7.03658
7.02515
7.01156
6.99586
6.97813
6.95842
6.93676
0.935682
0.913353
0.893794
0.876957
0.86279
0.851231
0.842216
0.835681
0.831563
0.8298
0.830337
0.833118
0.838095
0.845224
0.854463
0.865777
0.879132
0.894501
0.911857
0.931179
0.952447
0.975644
1.00076
1.02777
1.05667
1.08746
1.12011
1.15463
1.191
1.22922
1.26928
1.31118
1.35491
1.40046
1.44783
1.497
1.54798
1.60074
1.65529
1.7116
1.76968
1.8295
1.89106
1.95433
2.01931
2.08597
2.15429
2.22426
2.29585
2.36903
2.44378
2.52006
2.59786
2.67712
2.75782
2.83992
2.92337
3.00813
3.09415
3.18138
3.26976
3.35924
3.44976
3.54124
3.63362
3.72683
3.82079
3.91542
4.01063
4.10632
4.20242
4.2988
4.39539
4.49206
4.5887
4.68521
4.78147
4.87735
4.97274
5.06749
5.1615
5.25461
5.34671
5.43764
5.52729
5.61552
5.70218
5.78714
5.87028
5.95146
6.03055
6.10744
6.18199
6.2541
6.32367
6.39057
6.45473
6.51606
6.57447
6.62989
6.68227
6.73155
6.77769
6.82066
6.86043
6.89699
6.93034
6.96048
6.98744
7.01123
7.0319
7.04948
7.06403
7.0756
7.08427
7.09009
7.09315
7.09354
7.09132
7.08659
7.07943
7.06993
7.05819
7.04426
7.02825
7.0102
6.99019
6.96825
0.891586
0.868948
0.849107
0.832018
0.817625
0.805869
0.796685
0.790008
0.785774
0.783921
0.784389
0.787126
0.792081
0.799207
0.808464
0.819814
0.833223
0.848664
0.866108
0.885535
0.906924
0.930258
0.955521
0.982701
1.01179
1.04277
1.07564
1.11038
1.147
1.18548
1.22583
1.26802
1.31206
1.35795
1.40566
1.45521
1.50657
1.55975
1.61473
1.6715
1.73005
1.79038
1.85247
1.9163
1.98185
2.04912
2.11809
2.18872
2.26101
2.33492
2.41043
2.48751
2.56614
2.64627
2.72787
2.81091
2.89534
2.98111
3.06819
3.15651
3.24603
3.33668
3.42841
3.52114
3.61482
3.70936
3.80469
3.90073
3.99738
4.09456
4.19217
4.2901
4.38826
4.48653
4.5848
4.68296
4.78089
4.87845
4.97553
5.07199
5.1677
5.26252
5.35632
5.44895
5.54027
5.63015
5.71844
5.80501
5.88971
5.97242
6.05299
6.1313
6.20723
6.28066
6.35147
6.41956
6.48484
6.5472
6.60657
6.66289
6.71607
6.76608
6.81286
6.85639
6.89665
6.93361
6.96729
6.99769
7.02484
7.04875
7.06947
7.08705
7.10154
7.113
7.12151
7.12714
7.12997
7.13008
7.12758
7.12254
7.11506
7.10524
7.09315
7.0789
7.06255
7.04418
7.02386
7.00163
0.844665
0.821717
0.801595
0.784252
0.769636
0.757685
0.748334
0.741517
0.73717
0.735228
0.735633
0.738329
0.743265
0.750394
0.759673
0.771065
0.784535
0.800053
0.817593
0.837132
0.85865
0.882128
0.907553
0.93491
0.964189
0.99538
1.02847
1.06346
1.10034
1.1391
1.17974
1.22224
1.26662
1.31285
1.36093
1.41087
1.46265
1.51625
1.57169
1.62894
1.688
1.74886
1.8115
1.87591